LAMMPS (10 Dec 2025)
OMP_NUM_THREADS environment is not set. Defaulting to 1 thread.
  using 1 OpenMP thread(s) per MPI task
Loaded 1 plugins from C:\Users\fangy\AppData\Local\LAMMPS 64-bit 10Dec2025-MSMPI\plugins
# ===========================================================================
# LAMMPS Input Script: SLLOD Shear Production Run (Template)
# Reference: Zeng et al., J. Chem. Phys. 163, 084512 (2025)
#
# Usage (example):
#   mpirun -np 4 lmp -in in.shear_template \
#       -var SHEAR_RATE 0.01 -var DT 0.003 -var SEED 12345 \
#       -log log.shear_0.01
#
# Required command-line variables:
#   SHEAR_RATE  : shear rate (LJ units, tau_0^{-1})
#   DT          : timestep  (0.003 for gamma_dot <= 0.01; 0.001 otherwise)
#   SEED        : random seed (reserved; not used in current version)
#
# SLLOD physics summary:
#   - Lees-Edwards BC: periodic box sheared in xy plane
#     (flow x, gradient y, vorticity z)
#   - fix deform:     d(xy)/dt = gamma_dot * Ly  (remap v required)
#   - fix nvt/sllod:  SLLOD EOM + Nose-Hoover thermostat in peculiar frame
#   - Viscosity:      eta = -<P_xy> / gamma_dot
#     (P_xy in LAMMPS = full stress, positive in compression sign convention;
#      for shear flow: P_xy = sigma_xy = -eta * gamma_dot, so eta = -P_xy/gamma_dot)
#
# Protocol:
#   Pre-run:    accumulated strain Delta_gamma = 20  (reach steady state)
#   Production: accumulated strain Delta_gamma = 50  (data collection)
#
# Output files (written to working directory, moved by bash script):
#   dump.shear_${SHEAR_RATE}.lammpstrj  : atom trajectories every 0.5/gamma_dot
#   thermo.shear_${SHEAR_RATE}.dat      : P_xy time series every 100 steps
#   visc_blockave.shear_${SHEAR_RATE}.dat : block-averaged -<P_xy>
# ===========================================================================

# ===========================
# BASIC SETUP
# ===========================
units       lj
atom_style  atomic

# ===========================
# READ EQUILIBRATED CONFIG
# ===========================
# Restores: positions, velocities, masses, box geometry,
#           pair_style and pair_coeff from the equilibration run.
read_restart  restart.equil
Reading restart file ...
  restart file = 7 Feb 2024, LAMMPS = 10 Dec 2025
WARNING: Restart file used different # of processors: 6 vs. 22 (src/read_restart.cpp:630)
  restoring atom style atomic from restart
  orthogonal box = (0 0 0) to (23.957099 23.957099 23.957099)
  1 by 2 by 11 MPI processor grid
  restoring pair style lj/cut from restart
  16500 atoms
  read_restart CPU = 0.004 seconds

# Re-specify pair potential explicitly (defensive: ensures correct parameters
# even if restart was written with a different LAMMPS version).
pair_style  lj/cut  2.5
pair_coeff  1 1  1.0   1.0   2.5
pair_coeff  1 2  1.5   0.8   2.5
pair_coeff  2 2  0.5   0.88  2.5
pair_modify  shift  yes

# Rebuild neighbor list from scratch (box geometry may change below)
neighbor      0.3  bin
neigh_modify  every 1  delay 0  check yes

# ===========================
# DERIVED PARAMETERS
# ===========================
# Thermostat damping = 100 * dt
# (100 steps per oscillation period; standard Nose-Hoover choice)
variable  DAMP        equal  100.0*${DT}
variable  DAMP        equal  100.0*0.003

# Target temperature
variable  TEMP        equal  0.45

# Pre-run steps: strain = gamma_dot * t = gamma_dot * (N_steps * dt) = 20
# => N_pre = round(20 / (gamma_dot * dt))
variable  N_pre       equal  round(20.0/(${SHEAR_RATE}*${DT}))
variable  N_pre       equal  round(20.0/(0.003*${DT}))
variable  N_pre       equal  round(20.0/(0.003*0.003))

# Production steps: strain = 50
# => N_prod = round(50 / (gamma_dot * dt))
variable  N_prod      equal  round(50.0/(${SHEAR_RATE}*${DT}))
variable  N_prod      equal  round(50.0/(0.003*${DT}))
variable  N_prod      equal  round(50.0/(0.003*0.003))

# Dump interval: Delta_t_dump = 0.5 / gamma_dot time units
# => dump_every = round(0.5 / (gamma_dot * dt)) steps
# This gives ~100 trajectory frames per strain unit (sufficient for cage jump analysis)
variable  DUMP_EVERY  equal  round(0.02/(${SHEAR_RATE}*${DT}))
variable  DUMP_EVERY  equal  round(0.02/(0.003*${DT}))
variable  DUMP_EVERY  equal  round(0.02/(0.003*0.003))

# ===========================
# CONVERT BOX TO TRICLINIC
# ===========================
# The equilibrated restart has an orthogonal box.
# fix deform with 'xy erate' requires a triclinic box to store the xy tilt.
# change_box converts orthogonal -> triclinic without moving atoms.
change_box  all  triclinic
Changing box ...
  triclinic box = (0 0 0) to (23.957099 23.957099 23.957099) with tilt (0 0 0)

# ===========================
# TIMESTEP
# ===========================
timestep  ${DT}
timestep  0.003

# ===========================
# SLLOD SHEAR FIXES
# ===========================

# --- fix deform: apply Lees-Edwards boundary condition ---
# 'xy erate ${SHEAR_RATE}' ramps the xy tilt angle at rate gamma_dot,
# producing a linear shear flow vx = gamma_dot * y.
#
# 'remap v' is REQUIRED when using fix nvt/sllod:
#   When an atom crosses the y boundary, its vx is adjusted by +/- gamma_dot*Ly
#   to maintain a smooth velocity profile across the periodic boundary.
#   fix nvt/sllod uses this to compute the streaming velocity for thermostatting.
#
# 'flip yes' (default): when |xy| > Lx/2, the box is flipped to an equivalent
#   periodic image, preventing the box from becoming arbitrarily skewed.
#   This is the standard Lees-Edwards treatment for long runs.
#
fix  shear_deform  all  deform  1  xy  erate  ${SHEAR_RATE}  remap  v  flip  yes
fix  shear_deform  all  deform  1  xy  erate  0.003  remap  v  flip  yes

# --- fix nvt/sllod: SLLOD equations of motion with Nose-Hoover thermostat ---
# Integrates: dp_i/dt = F_i - (dxz_dot)*p_yi*xhat - xi*p_i
# where dxz_dot = gamma_dot (velocity gradient).
# Internally creates compute temp/deform to compute temperature with
# streaming velocity subtracted.
# NOTE: this fix REQUIRES that fix deform uses 'remap v' (enforced by LAMMPS).
#
fix  sllod_nvt  all  nvt/sllod  temp  ${TEMP}  ${TEMP}  ${DAMP}
fix  sllod_nvt  all  nvt/sllod  temp  0.45  ${TEMP}  ${DAMP}
fix  sllod_nvt  all  nvt/sllod  temp  0.45  0.45  ${DAMP}
fix  sllod_nvt  all  nvt/sllod  temp  0.45  0.45  0.3

# --- Thermo quantities consistent with SLLOD (remove streaming velocity) ---
compute  Tdeform all temp/deform
compute  Pdeform all pressure Tdeform

thermo_modify  temp  Tdeform
thermo_modify  press Pdeform

# ===========================
# LOG THERMO (to log file)
# ===========================
thermo        1000
thermo_style  custom  step  c_Tdeform  c_Pdeform  c_Pdeform[4]
WARNING: New thermo_style command, previous thermo_modify settings will be lost (src/output.cpp:1100)
thermo_modify  flush  yes

# ===========================
# PRE-RUN: REACH STEADY STATE (Delta_gamma = 20)
# ===========================
# No file output during pre-run to avoid polluting data files with transients.
# Low shear rates (e.g., 0.001) require N_pre = 6,666,667 steps — be patient.
print "=========================================="
==========================================
print "PRE-RUN"
PRE-RUN
print "  gamma_dot   = ${SHEAR_RATE}"
  gamma_dot   = 0.003
print "  dt          = ${DT}"
  dt          = 0.003
print "  N_pre steps = ${N_pre}  (strain = 20)"
  N_pre steps = 2222222  (strain = 20)
print "=========================================="
==========================================
run  ${N_pre}
run  2222222
Generated 0 of 1 mixed pair_coeff terms from geometric mixing rule
Unused restart file peratom fix info:
  fix style: STORE/ATOM, fix ID: myMSD_COMPUTE_STORE
Neighbor list info ...
  update: every = 1 steps, delay = 0 steps, check = yes
  max neighbors/atom: 2000, page size: 100000
  master list distance cutoff = 2.8
  ghost atom cutoff = 2.8
  binsize = 1.4, bins = 18 18 18
  1 neighbor lists, perpetual/occasional/extra = 1 0 0
  (1) pair lj/cut, perpetual
      attributes: half, newton on
      pair build: half/bin/atomonly/newton/tri
      stencil: half/bin/3d/tri
      bin: standard
Per MPI rank memory allocation (min/avg/max) = 3.301 | 3.303 | 3.305 Mbytes
   Step       c_Tdeform      c_Pdeform     c_Pdeform[4] 
    651000   0.44896217     3.0427101     -0.027221182  
    652000   0.44488565     2.9503306     -0.15489266   
    653000   0.44970328     3.0099393     -0.181205     
    654000   0.44904497     3.0002763     -0.36172641   
    655000   0.44694611     3.0248524     -0.52119001   
    656000   0.44946945     3.0548644     -0.52910086   
    657000   0.45094457     3.0329915     -0.59222692   
    658000   0.45240844     3.1011224     -0.67560903   
    659000   0.45089805     3.1385941     -0.69216403   
    660000   0.44667571     3.2037106     -0.76470564   
    661000   0.44951531     3.2266434     -0.80317775   
    662000   0.450418       3.2189965     -0.83244025   
    663000   0.44684225     3.2840569     -0.83667974   
    664000   0.44902844     3.3352327     -0.74991461   
    665000   0.44984325     3.2965801     -0.75583657   
    666000   0.45470207     3.3349418     -0.72516627   
    667000   0.45046871     3.3264661     -0.64882992   
    668000   0.45273727     3.4020625     -0.66882999   
    669000   0.44976199     3.3655508     -0.6258454    
    670000   0.44935998     3.3842885     -0.59670847   
    671000   0.45065039     3.4061694     -0.55205974   
    672000   0.4484153      3.3743263     -0.56077712   
    673000   0.44838375     3.3942808     -0.58338071   
    674000   0.44862101     3.4232706     -0.55571077   
    675000   0.44685422     3.391665      -0.49735804   
    676000   0.44946495     3.4150418     -0.45660469   
    677000   0.44921701     3.4141774     -0.52519955   
    678000   0.45338212     3.3506682     -0.41318984   
    679000   0.44614106     3.4222941     -0.50054518   
    680000   0.44741423     3.429807      -0.46800195   
    681000   0.44973108     3.3976487     -0.51598452   
    682000   0.45120779     3.4451897     -0.52090815   
    683000   0.44689655     3.3637932     -0.43489182   
    684000   0.45376342     3.4296756     -0.4629969    
    685000   0.44621618     3.414549      -0.39213032   
    686000   0.44874138     3.4438151     -0.43950743   
    687000   0.44717876     3.398394      -0.40236167   
    688000   0.45254306     3.3687088     -0.47584897   
    689000   0.4529299      3.4145251     -0.48430842   
    690000   0.44863162     3.4142205     -0.40695411   
    691000   0.44777845     3.4014876     -0.44601249   
    692000   0.44790912     3.4028083     -0.50380614   
    693000   0.45194313     3.3925398     -0.43741121   
    694000   0.44693933     3.3899371     -0.46308356   
    695000   0.44717833     3.406276      -0.36358318   
    696000   0.45450164     3.3941617     -0.50701026   
    697000   0.45133756     3.3560537     -0.49730287   
    698000   0.45083605     3.3214848     -0.50098751   
    699000   0.45346184     3.3921101     -0.48746561   
    700000   0.44834096     3.3782593     -0.41268787   
    701000   0.45136414     3.4431232     -0.35605551   
    702000   0.44814808     3.3646503     -0.4077379    
    703000   0.45317279     3.3781443     -0.42941288   
    704000   0.45144842     3.3989435     -0.50375683   
    705000   0.44660688     3.3349671     -0.46048277   
    706000   0.45764599     3.383255      -0.52465117   
    707000   0.44909174     3.429908      -0.46785974   
    708000   0.44647203     3.3909186     -0.44218234   
    709000   0.45868601     3.4119599     -0.48242168   
    710000   0.44958959     3.3813171     -0.43988034   
    711000   0.44828938     3.4678569     -0.50465589   
    712000   0.44615279     3.376217      -0.47600214   
    713000   0.4543655      3.4069581     -0.50321827   
    714000   0.45609273     3.3991051     -0.52805251   
    715000   0.44874092     3.3906114     -0.54010522   
    716000   0.45084797     3.3864367     -0.49744501   
    717000   0.44882438     3.4690452     -0.45726987   
    718000   0.4511264      3.3924338     -0.48280119   
    719000   0.44729446     3.4439784     -0.4760363    
    720000   0.4488117      3.4398263     -0.47804252   
    721000   0.44526828     3.4157892     -0.49168741   
    722000   0.45046541     3.4190254     -0.54548053   
    723000   0.45207002     3.3916847     -0.52511637   
    724000   0.44836156     3.3705619     -0.50897629   
    725000   0.45509233     3.4026113     -0.42960555   
    726000   0.44775285     3.4061311     -0.38593452   
    727000   0.44948446     3.4259643     -0.5056082    
    728000   0.44899982     3.4050694     -0.46091889   
    729000   0.44857736     3.3692431     -0.47651435   
    730000   0.45029348     3.4056159     -0.45620783   
    731000   0.45223756     3.3926244     -0.43777601   
    732000   0.44812275     3.350853      -0.4582619    
    733000   0.44928233     3.3972664     -0.41180006   
    734000   0.44597286     3.4274408     -0.47635493   
    735000   0.45569353     3.4078477     -0.50221816   
    736000   0.44573377     3.4654614     -0.54588108   
    737000   0.44461568     3.3912375     -0.53658102   
    738000   0.45247787     3.4514593     -0.61852231   
    739000   0.44774785     3.39547       -0.59015484   
    740000   0.45307256     3.4227754     -0.46282669   
    741000   0.45412021     3.456579      -0.42380856   
    742000   0.45217558     3.4179758     -0.53760555   
    743000   0.45387479     3.4398145     -0.45885157   
    744000   0.44671701     3.3942434     -0.41694971   
    745000   0.44576828     3.456494      -0.45005908   
    746000   0.44965174     3.4606864     -0.38945032   
    747000   0.44797586     3.4169304     -0.42330522   
    748000   0.45603712     3.4313791     -0.51566163   
    749000   0.44443192     3.4126661     -0.39335522   
    750000   0.45139106     3.4232106     -0.45514674   
    751000   0.44970056     3.4245829     -0.41069221   
    752000   0.45025913     3.3723015     -0.47518653   
    753000   0.44960683     3.4236112     -0.44605576   
    754000   0.45006883     3.4158096     -0.44280508   
    755000   0.45093337     3.4218967     -0.41127729   
    756000   0.45192139     3.4084167     -0.45144923   
    757000   0.45230533     3.4419955     -0.46090349   
    758000   0.445999       3.4295184     -0.46758221   
    759000   0.45027101     3.3628678     -0.41834665   
    760000   0.45234744     3.4036318     -0.38092583   
    761000   0.45316735     3.3930972     -0.38845464   
    762000   0.44220452     3.3999537     -0.47427415   
    763000   0.44498001     3.4274689     -0.47375255   
    764000   0.45273752     3.4606174     -0.4808353    
    765000   0.44565879     3.4042146     -0.46673121   
    766000   0.45193486     3.4206664     -0.39869258   
    767000   0.45010653     3.4550216     -0.49492605   
    768000   0.44982369     3.3210196     -0.43588688   
    769000   0.44981521     3.4948922     -0.42200416   
    770000   0.44897951     3.3747926     -0.43172336   
    771000   0.44897205     3.3761896     -0.41233965   
    772000   0.45185635     3.3947776     -0.38132329   
    773000   0.44955812     3.3921804     -0.44758044   
    774000   0.45209869     3.3394945     -0.47595369   
    775000   0.45037148     3.4118944     -0.41164385   
    776000   0.44692399     3.4079721     -0.50874779   
    777000   0.45547492     3.4102542     -0.48210059   
    778000   0.44981045     3.4206965     -0.45715919   
    779000   0.44670743     3.4247315     -0.47621665   
    780000   0.45081532     3.443946      -0.51393962   
    781000   0.44674291     3.358795      -0.43456148   
    782000   0.44986859     3.4722165     -0.46252808   
    783000   0.44922426     3.4195972     -0.45040026   
    784000   0.44915529     3.3984731     -0.4359464    
    785000   0.44946948     3.4307787     -0.41448149   
    786000   0.45330817     3.4018837     -0.41906168   
    787000   0.44988269     3.3917759     -0.39530697   
    788000   0.44721396     3.4480932     -0.36412158   
    789000   0.44904186     3.3972995     -0.44949927   
    790000   0.44835664     3.4111857     -0.47856042   
    791000   0.45191485     3.3764645     -0.46500369   
    792000   0.44967304     3.4201684     -0.40560505   
    793000   0.4532483      3.4220042     -0.29420285   
    794000   0.45056247     3.3399976     -0.43351319   
    795000   0.45365377     3.3737411     -0.45284322   
    796000   0.44934259     3.3973802     -0.42506009   
    797000   0.4465703      3.3654227     -0.45916059   
    798000   0.45920921     3.4148207     -0.49300709   
    799000   0.4432577      3.3255439     -0.49612506   
    800000   0.45761618     3.428961      -0.47725919   
    801000   0.45108432     3.3982686     -0.55162103   
    802000   0.44493887     3.3870755     -0.5465021    
    803000   0.44844042     3.4227756     -0.52019229   
    804000   0.45165836     3.3945881     -0.50772431   
    805000   0.45011711     3.4353357     -0.45731698   
    806000   0.44872409     3.3777879     -0.45085376   
    807000   0.44744715     3.4643243     -0.40486636   
    808000   0.44813871     3.3990556     -0.46000125   
    809000   0.45102089     3.4230574     -0.45074534   
    810000   0.45054427     3.4251717     -0.4670603    
    811000   0.44907211     3.4127788     -0.50508196   
    812000   0.44968587     3.3980979     -0.42445535   
    813000   0.44828357     3.3501758     -0.49698328   
    814000   0.45108273     3.3778428     -0.50312833   
    815000   0.45358769     3.3862289     -0.44830162   
    816000   0.44636931     3.4158095     -0.40554301   
    817000   0.44656766     3.3923846     -0.52913763   
    818000   0.45207241     3.4318068     -0.47012504   
    819000   0.44932526     3.3956203     -0.48001872   
    820000   0.4467048      3.3745218     -0.50224858   
    821000   0.45106396     3.3802482     -0.51565673   
    822000   0.44431866     3.3807353     -0.48328268   
    823000   0.45070674     3.401864      -0.42533594   
    824000   0.45072332     3.4259064     -0.50572966   
    825000   0.44559802     3.4418725     -0.45956217   
    826000   0.4528601      3.4467237     -0.46017685   
    827000   0.45042556     3.43926       -0.50479747   
    828000   0.44997119     3.4733024     -0.42081529   
    829000   0.44768787     3.4598289     -0.41062682   
    830000   0.44580545     3.3917968     -0.47328318   
    831000   0.45121387     3.4744642     -0.39680124   
    832000   0.44991773     3.419359      -0.36684479   
    833000   0.44722026     3.3919054     -0.47196986   
    834000   0.44859343     3.4995166     -0.43062584   
    835000   0.45384864     3.435176      -0.49850939   
    836000   0.44843945     3.32352       -0.47698686   
    837000   0.4560122      3.4680536     -0.55856844   
    838000   0.44656043     3.397052      -0.56564271   
    839000   0.44646333     3.4343516     -0.52717695   
    840000   0.45105402     3.4762914     -0.4694759    
    841000   0.44982544     3.4143409     -0.44332594   
    842000   0.44679219     3.4589997     -0.41788473   
    843000   0.44951431     3.4709131     -0.4194523    
    844000   0.4456082      3.4082162     -0.47138791   
    845000   0.45097857     3.4780115     -0.42856466   
    846000   0.45146875     3.4667963     -0.38361558   
    847000   0.44643497     3.4300927     -0.36021093   
    848000   0.45539736     3.4391806     -0.3257463    
    849000   0.44771483     3.4366597     -0.3905112    
    850000   0.4509675      3.3995926     -0.4224912    
    851000   0.45543446     3.459428      -0.44708835   
    852000   0.4495998      3.3344639     -0.45567764   
    853000   0.44890208     3.4657403     -0.5075809    
    854000   0.45027178     3.4148136     -0.43917037   
    855000   0.44496006     3.4061894     -0.40511959   
    856000   0.44975009     3.4097289     -0.37749668   
    857000   0.44872755     3.4126127     -0.41691653   
    858000   0.44608744     3.399467      -0.51280309   
    859000   0.45386181     3.4280444     -0.51769492   
    860000   0.45107217     3.3518046     -0.52660068   
    861000   0.44798267     3.3857754     -0.43963583   
    862000   0.44494011     3.435294      -0.45600894   
    863000   0.44902549     3.3983399     -0.44202719   
    864000   0.44853219     3.3757271     -0.45093059   
    865000   0.44407184     3.4062329     -0.44814111   
    866000   0.451794       3.4112444     -0.44445683   
    867000   0.44707069     3.3928649     -0.46813798   
    868000   0.44667655     3.4405345     -0.54646501   
    869000   0.45624739     3.4143581     -0.47148825   
    870000   0.44924368     3.4360392     -0.41944435   
    871000   0.44617756     3.4361108     -0.54327007   
    872000   0.45149697     3.4266872     -0.51774062   
    873000   0.44988765     3.4647724     -0.52501185   
    874000   0.44966361     3.4771904     -0.4793946    
    875000   0.45012804     3.4376034     -0.50279217   
    876000   0.44722494     3.4446397     -0.48856994   
    877000   0.4510555      3.4661248     -0.51551562   
    878000   0.44687516     3.3950069     -0.45368141   
    879000   0.4512125      3.4606838     -0.45288211   
    880000   0.44741751     3.3808635     -0.36846548   
    881000   0.45192407     3.4714048     -0.40566086   
    882000   0.44675277     3.4357355     -0.49227661   
    883000   0.44964939     3.4157567     -0.4122312    
    884000   0.44936271     3.4699648     -0.51194769   
    885000   0.4510333      3.3466604     -0.41371301   
    886000   0.45510126     3.4303656     -0.45388306   
    887000   0.45222062     3.4393017     -0.49018197   
    888000   0.4515544      3.3619881     -0.45014425   
    889000   0.45216106     3.4104957     -0.39262294   
    890000   0.44887113     3.3473771     -0.44497342   
    891000   0.45057415     3.4770261     -0.41861892   
    892000   0.44696901     3.3924126     -0.5072048    
    893000   0.45218388     3.3962192     -0.48505275   
    894000   0.45412576     3.4442174     -0.4200912    
    895000   0.44789621     3.4051408     -0.49665703   
    896000   0.45318716     3.4375642     -0.46625161   
    897000   0.45070306     3.4323146     -0.52413131   
    898000   0.45161568     3.3855552     -0.55105687   
    899000   0.45366382     3.4789561     -0.46071493   
    900000   0.4491812      3.4341134     -0.47488726   
    901000   0.44680338     3.4205217     -0.43129992   
    902000   0.45423666     3.4265565     -0.40491043   
    903000   0.45008158     3.4392345     -0.44821417   
    904000   0.4466557      3.3877699     -0.45073242   
    905000   0.44893167     3.4911004     -0.51948627   
    906000   0.44918556     3.414627      -0.44864512   
    907000   0.44952137     3.4490306     -0.52902413   
    908000   0.45151755     3.3993094     -0.49354707   
    909000   0.45164212     3.3979195     -0.42367457   
    910000   0.444796       3.3782317     -0.46393367   
    911000   0.45523706     3.480955      -0.47282324   
    912000   0.44677042     3.4207266     -0.36182244   
    913000   0.45678417     3.3611273     -0.48021751   
    914000   0.45058197     3.4330533     -0.44334145   
    915000   0.4494639      3.4110499     -0.46794102   
    916000   0.4515601      3.3977818     -0.47563377   
    917000   0.44792695     3.3709571     -0.48252359   
    918000   0.45349532     3.4306088     -0.49493791   
    919000   0.45151215     3.3989954     -0.4483176    
    920000   0.4490915      3.39671       -0.51059588   
    921000   0.44638155     3.4130238     -0.48099071   
    922000   0.45220892     3.3856685     -0.53149018   
    923000   0.4482716      3.3505263     -0.54541754   
    924000   0.45115835     3.3741149     -0.61548222   
    925000   0.44672962     3.4252496     -0.50062988   
    926000   0.44851023     3.3526467     -0.52853335   
    927000   0.45219072     3.4630985     -0.52093781   
    928000   0.44788528     3.3904157     -0.48124303   
    929000   0.45267257     3.3885597     -0.55122951   
    930000   0.45525564     3.4700658     -0.52981478   
    931000   0.44358289     3.3911989     -0.52599884   
    932000   0.45230611     3.4206465     -0.45771743   
    933000   0.45411986     3.4612721     -0.51127686   
    934000   0.44476996     3.3749264     -0.41594031   
    935000   0.45032084     3.4635223     -0.45641749   
    936000   0.44518104     3.3615277     -0.50929571   
    937000   0.44770691     3.4201464     -0.40630469   
    938000   0.4504545      3.4103717     -0.49349702   
    939000   0.44699873     3.4168293     -0.48335782   
    940000   0.44521169     3.4081595     -0.52728081   
    941000   0.45218078     3.4471849     -0.49305337   
    942000   0.44602122     3.4280874     -0.40291719   
    943000   0.45237209     3.4375856     -0.48357699   
    944000   0.45005452     3.426158      -0.44308605   
    945000   0.44960372     3.4396495     -0.462759     
    946000   0.44639911     3.4283849     -0.42583088   
    947000   0.45267909     3.4259861     -0.43088887   
    948000   0.44861037     3.4137193     -0.45527448   
    949000   0.44884887     3.3841373     -0.49926701   
    950000   0.45439742     3.4387999     -0.48092563   
    951000   0.4453501      3.3537158     -0.5065196    
    952000   0.45006069     3.4245514     -0.50308465   
    953000   0.44822434     3.3921495     -0.39691924   
    954000   0.44845504     3.3982813     -0.52759554   
    955000   0.45017852     3.4397332     -0.41384693   
    956000   0.45076673     3.4183055     -0.44385233   
    957000   0.44583188     3.4125704     -0.45105881   
    958000   0.45503755     3.4352595     -0.46362816   
    959000   0.45044263     3.4295343     -0.51646294   
    960000   0.44722253     3.4415683     -0.38989652   
    961000   0.45522858     3.4380334     -0.43808389   
    962000   0.44963187     3.4250746     -0.47290338   
    963000   0.45348668     3.4316615     -0.47944243   
    964000   0.44551298     3.4386288     -0.5036944    
    965000   0.4496724      3.4056026     -0.5176501    
    966000   0.45207906     3.4306559     -0.51847142   
    967000   0.45435341     3.4010516     -0.46873342   
    968000   0.44867328     3.4516678     -0.50547289   
    969000   0.45046833     3.4437904     -0.51526771   
    970000   0.45222481     3.4562568     -0.45323344   
    971000   0.4472398      3.4403135     -0.49752794   
    972000   0.44925596     3.4571605     -0.48306572   
    973000   0.44726117     3.4670414     -0.55657165   
    974000   0.4482455      3.4451785     -0.50557658   
    975000   0.45128204     3.4240623     -0.48914803   
    976000   0.45362134     3.4424321     -0.40590182   
    977000   0.44704383     3.4267162     -0.43314269   
    978000   0.45228206     3.4261637     -0.46101277   
    979000   0.44635862     3.4463799     -0.42750924   
    980000   0.44931878     3.4028345     -0.47014154   
    981000   0.45035542     3.4214596     -0.47871773   
    982000   0.45040566     3.4730563     -0.52943702   
    983000   0.44282526     3.3878547     -0.47351167   
    984000   0.45344125     3.4375791     -0.47763853   
    985000   0.45123991     3.3763721     -0.43348433   
    986000   0.44979887     3.3810353     -0.43524171   
    987000   0.45622072     3.4490658     -0.42376412   
    988000   0.443439       3.4231582     -0.4709139    
    989000   0.45121069     3.4394224     -0.39010381   
    990000   0.45043957     3.4869907     -0.38100989   
    991000   0.44932355     3.3548621     -0.50648166   
    992000   0.4560496      3.4477254     -0.34078508   
    993000   0.44457738     3.4182209     -0.39760395   
    994000   0.44615432     3.4287475     -0.45480862   
    995000   0.45440705     3.4086313     -0.46376268   
    996000   0.44385248     3.4059135     -0.44571961   
    997000   0.45483391     3.4200378     -0.41844698   
    998000   0.44270087     3.4003494     -0.45614598   
    999000   0.4544144      3.4475502     -0.48234001   
   1000000   0.45085548     3.4089679     -0.45704231   
   1001000   0.44992239     3.3365602     -0.40016189   
   1002000   0.44953765     3.4502358     -0.49534581   
   1003000   0.44499442     3.3732686     -0.45189347   
   1004000   0.45439045     3.4010037     -0.49457974   
   1005000   0.44591005     3.3911841     -0.44502363   
   1006000   0.45256098     3.408205      -0.45581794   
   1007000   0.44592951     3.4241633     -0.52206474   
   1008000   0.4456204      3.3767092     -0.47646307   
   1009000   0.45038254     3.4105429     -0.48525477   
   1010000   0.45042163     3.3756003     -0.40971322   
   1011000   0.44916441     3.4475135     -0.54184834   
   1012000   0.44748863     3.3716942     -0.4888943    
   1013000   0.4476205      3.4061916     -0.45926221   
   1014000   0.45322776     3.388167      -0.48930169   
   1015000   0.44888265     3.3748183     -0.47618733   
   1016000   0.44976914     3.419662      -0.48476367   
   1017000   0.4457764      3.4294394     -0.4716895    
   1018000   0.44931436     3.4493662     -0.43875736   
   1019000   0.45452289     3.4692554     -0.44795268   
   1020000   0.44234945     3.4041109     -0.40193755   
   1021000   0.45599151     3.4333592     -0.43744169   
   1022000   0.44702426     3.3628784     -0.42876558   
   1023000   0.45022313     3.4049444     -0.45134802   
   1024000   0.4523809      3.3526215     -0.52033184   
   1025000   0.44921354     3.3677386     -0.47013848   
   1026000   0.45264423     3.4133222     -0.46429683   
   1027000   0.44400691     3.3695551     -0.41514301   
   1028000   0.45151978     3.4490813     -0.43257399   
   1029000   0.44625408     3.3447967     -0.44436853   
   1030000   0.45157171     3.3830592     -0.46949492   
   1031000   0.45252942     3.3924503     -0.49136792   
   1032000   0.44415375     3.3662757     -0.40740652   
   1033000   0.45289564     3.4476399     -0.53316706   
   1034000   0.44721114     3.3786618     -0.40292852   
   1035000   0.44899676     3.3931101     -0.49255434   
   1036000   0.45550555     3.3675542     -0.56428156   
   1037000   0.45083862     3.4145783     -0.57893014   
   1038000   0.44722484     3.3801759     -0.54197002   
   1039000   0.45020814     3.4947953     -0.5510376    
   1040000   0.44602169     3.4238852     -0.53900516   
   1041000   0.44320456     3.4867921     -0.49516161   
   1042000   0.45058346     3.4411098     -0.52232888   
   1043000   0.45092057     3.4488678     -0.52568684   
   1044000   0.44639136     3.4235264     -0.4051108    
   1045000   0.45424729     3.4292574     -0.46598416   
   1046000   0.44949856     3.4331412     -0.45422463   
   1047000   0.45253696     3.3994798     -0.47141171   
   1048000   0.45136243     3.4852653     -0.45311912   
   1049000   0.44974704     3.4082585     -0.48428361   
   1050000   0.45257281     3.4342409     -0.44343526   
   1051000   0.45010778     3.4603254     -0.43925476   
   1052000   0.4482908      3.4091687     -0.51141073   
   1053000   0.44864165     3.4350512     -0.50362011   
   1054000   0.45360118     3.3845389     -0.42727462   
   1055000   0.44977228     3.5085243     -0.46348599   
   1056000   0.45159497     3.4064277     -0.49221408   
   1057000   0.44773469     3.3992234     -0.51461379   
   1058000   0.45258349     3.443292      -0.54214717   
   1059000   0.4440158      3.3984767     -0.45759123   
   1060000   0.45387627     3.4215525     -0.52332432   
   1061000   0.447091       3.417802      -0.48978107   
   1062000   0.45102162     3.4337617     -0.40745338   
   1063000   0.45574035     3.4409438     -0.52941351   
   1064000   0.44532026     3.383457      -0.43901455   
   1065000   0.45062655     3.4751296     -0.42956636   
   1066000   0.45096948     3.4473881     -0.36515655   
   1067000   0.44804784     3.3684636     -0.434269     
   1068000   0.45910185     3.453877      -0.41936088   
   1069000   0.44484532     3.3715561     -0.50403467   
   1070000   0.44961113     3.4085039     -0.37889249   
   1071000   0.45325603     3.4695686     -0.50251667   
   1072000   0.44644138     3.4534417     -0.374697     
   1073000   0.44484679     3.442605      -0.46493649   
   1074000   0.45439651     3.4116418     -0.48980139   
   1075000   0.44931368     3.3639678     -0.41015522   
   1076000   0.45103514     3.4093697     -0.43345314   
   1077000   0.45002981     3.4116489     -0.42206867   
   1078000   0.45058517     3.379415      -0.43275453   
   1079000   0.45223378     3.4519547     -0.46129664   
   1080000   0.44510581     3.3988755     -0.48173425   
   1081000   0.44812742     3.4232246     -0.50057151   
   1082000   0.44846348     3.3934086     -0.46236553   
   1083000   0.45052313     3.3861164     -0.49897628   
   1084000   0.45079943     3.4457429     -0.3592371    
   1085000   0.447433       3.3960223     -0.45442059   
   1086000   0.45203271     3.440259      -0.48260588   
   1087000   0.45033434     3.4315079     -0.50470103   
   1088000   0.44714186     3.3819572     -0.44276992   
   1089000   0.45286827     3.4546304     -0.40118582   
   1090000   0.44939961     3.389232      -0.44757633   
   1091000   0.45041469     3.391497      -0.48354336   
   1092000   0.4557262      3.378709      -0.44596416   
   1093000   0.44593992     3.3716784     -0.41001269   
   1094000   0.4553247      3.4378845     -0.40241863   
   1095000   0.44723801     3.4117247     -0.50337638   
   1096000   0.44960164     3.4156104     -0.48709472   
   1097000   0.45180013     3.4649866     -0.50934959   
   1098000   0.44202005     3.3749365     -0.5438407    
   1099000   0.4545895      3.4819698     -0.50439381   
   1100000   0.44921732     3.3983814     -0.49165376   
   1101000   0.44783579     3.4161238     -0.46435005   
   1102000   0.45385124     3.5024144     -0.44554844   
   1103000   0.44512356     3.410761      -0.38912151   
   1104000   0.45038443     3.3995381     -0.45091973   
   1105000   0.45054348     3.4493499     -0.42934574   
   1106000   0.44696919     3.4208427     -0.48032351   
   1107000   0.45148358     3.4366476     -0.44613331   
   1108000   0.45137487     3.381438      -0.44039963   
   1109000   0.44866582     3.4089556     -0.47908167   
   1110000   0.44919599     3.4768181     -0.45040086   
   1111000   0.44568186     3.4141024     -0.46931747   
   1112000   0.45482824     3.4254091     -0.49314867   
   1113000   0.447617       3.4083244     -0.56581099   
   1114000   0.45364249     3.4569998     -0.5058906    
   1115000   0.4461178      3.3686726     -0.44912469   
   1116000   0.45215921     3.4531007     -0.41741503   
   1117000   0.44858268     3.4422217     -0.50417007   
   1118000   0.45180631     3.4092561     -0.41144342   
   1119000   0.45182647     3.4374585     -0.49171495   
   1120000   0.45231317     3.3569146     -0.48961511   
   1121000   0.45095755     3.4533251     -0.49615483   
   1122000   0.45218952     3.3962077     -0.48828827   
   1123000   0.44785298     3.3775323     -0.51090383   
   1124000   0.45317483     3.4205605     -0.50261458   
   1125000   0.44603917     3.4299834     -0.50974516   
   1126000   0.44662699     3.3829855     -0.39934145   
   1127000   0.45917723     3.4254102     -0.39655825   
   1128000   0.44836738     3.3294439     -0.4577955    
   1129000   0.45352707     3.403232      -0.49224356   
   1130000   0.44665235     3.4221433     -0.46446503   
   1131000   0.44778921     3.3676358     -0.51825305   
   1132000   0.45176217     3.4779568     -0.52077064   
   1133000   0.4470574      3.370629      -0.46365808   
   1134000   0.454579       3.449728      -0.49535515   
   1135000   0.44359271     3.3760296     -0.41268759   
   1136000   0.45572595     3.3963418     -0.48315307   
   1137000   0.45323201     3.3885084     -0.47271987   
   1138000   0.44798864     3.3409156     -0.51299256   
   1139000   0.45112684     3.4458433     -0.5416088    
   1140000   0.44796486     3.3260112     -0.45358836   
   1141000   0.45495017     3.3979305     -0.41577262   
   1142000   0.44761979     3.3701739     -0.5170975    
   1143000   0.44812854     3.3787465     -0.43215708   
   1144000   0.44810535     3.4426253     -0.54949524   
   1145000   0.449768       3.3718067     -0.53677163   
   1146000   0.44480945     3.3616197     -0.49905408   
   1147000   0.4537274      3.4258534     -0.49443813   
   1148000   0.45072378     3.3601867     -0.51406566   
   1149000   0.45105106     3.3900273     -0.45562488   
   1150000   0.45691837     3.402462      -0.41195734   
   1151000   0.44783909     3.3892568     -0.4625133    
   1152000   0.448492       3.4510108     -0.52166194   
   1153000   0.45077557     3.4196381     -0.4096452    
   1154000   0.45037466     3.3942874     -0.4846246    
   1155000   0.44807732     3.3868154     -0.52144393   
   1156000   0.45112212     3.3626101     -0.44899356   
   1157000   0.4547293      3.4109432     -0.39711649   
   1158000   0.44605694     3.355137      -0.45523158   
   1159000   0.44961172     3.3922316     -0.42500188   
   1160000   0.45341274     3.3576625     -0.53403687   
   1161000   0.4471864      3.4203305     -0.46115891   
   1162000   0.44955025     3.4117508     -0.46047985   
   1163000   0.4512707      3.3899807     -0.41003837   
   1164000   0.44997223     3.4037835     -0.46571047   
   1165000   0.45399759     3.3460638     -0.40469317   
   1166000   0.45081259     3.4164801     -0.50058713   
   1167000   0.45125394     3.4191198     -0.47070472   
   1168000   0.45306414     3.4305646     -0.44052642   
   1169000   0.44734462     3.3690375     -0.45328538   
   1170000   0.44978886     3.4012537     -0.46256968   
   1171000   0.44682798     3.4193129     -0.40960559   
   1172000   0.45180906     3.3938152     -0.46830464   
   1173000   0.45333216     3.4286574     -0.38965584   
   1174000   0.44549929     3.4082785     -0.49017018   
   1175000   0.44942745     3.4329383     -0.44093655   
   1176000   0.45093464     3.4119362     -0.44188206   
   1177000   0.45343083     3.3813539     -0.49891327   
   1178000   0.44906285     3.3774738     -0.43989871   
   1179000   0.44817756     3.3829479     -0.43739027   
   1180000   0.44793532     3.4172485     -0.39618001   
   1181000   0.45516197     3.3984663     -0.4715623    
   1182000   0.44890422     3.3242188     -0.49998708   
   1183000   0.45267883     3.417049      -0.4760912    
   1184000   0.4506918      3.4400925     -0.47260334   
   1185000   0.45132924     3.3840241     -0.58974972   
   1186000   0.44939705     3.4375119     -0.51528448   
   1187000   0.4467261      3.3572387     -0.46901293   
   1188000   0.45244847     3.3466729     -0.45299223   
   1189000   0.45300589     3.4265338     -0.50831195   
   1190000   0.45142077     3.3832189     -0.46737119   
   1191000   0.45143481     3.4339835     -0.42621248   
   1192000   0.45082665     3.4005064     -0.47330194   
   1193000   0.44802653     3.3692231     -0.43092354   
   1194000   0.44710704     3.4300676     -0.47735017   
   1195000   0.44876183     3.3903952     -0.44091746   
   1196000   0.45589532     3.4300414     -0.45992605   
   1197000   0.45052988     3.3929953     -0.44040294   
   1198000   0.45047089     3.3925619     -0.45327874   
   1199000   0.44893412     3.4377368     -0.4699749    
   1200000   0.45044749     3.3785626     -0.43946332   
   1201000   0.44604492     3.4453561     -0.44474758   
   1202000   0.44864457     3.4004136     -0.44699253   
   1203000   0.45111189     3.3813162     -0.46705336   
   1204000   0.44888904     3.3937998     -0.42069301   
   1205000   0.45318663     3.3878975     -0.50749453   
   1206000   0.44918385     3.3961096     -0.46629083   
   1207000   0.45047244     3.4340236     -0.4945183    
   1208000   0.45262483     3.4103329     -0.52069505   
   1209000   0.44825186     3.4171374     -0.51410135   
   1210000   0.45337354     3.3958999     -0.46752853   
   1211000   0.45143421     3.3824874     -0.50928806   
   1212000   0.45226808     3.3934725     -0.50585562   
   1213000   0.44775431     3.3800891     -0.46358744   
   1214000   0.45149039     3.4037087     -0.45608602   
   1215000   0.44600152     3.4184713     -0.46293416   
   1216000   0.44661521     3.4230811     -0.4745555    
   1217000   0.44921859     3.3799615     -0.42559712   
   1218000   0.45216274     3.450843      -0.49791147   
   1219000   0.45591459     3.3907139     -0.45079352   
   1220000   0.45180971     3.3779364     -0.50778102   
   1221000   0.45079053     3.4301031     -0.43233576   
   1222000   0.44606089     3.4112861     -0.54782498   
   1223000   0.44841879     3.3801541     -0.54302632   
   1224000   0.45475904     3.4697226     -0.49799501   
   1225000   0.44398499     3.3989931     -0.53420322   
   1226000   0.45100067     3.4625748     -0.42230672   
   1227000   0.44997092     3.4430354     -0.43162217   
   1228000   0.45079049     3.4123444     -0.43860627   
   1229000   0.45501365     3.455906      -0.46035075   
   1230000   0.44957877     3.3859818     -0.43358651   
   1231000   0.45228127     3.3913326     -0.48842954   
   1232000   0.44722236     3.4620255     -0.38745357   
   1233000   0.44708215     3.3742109     -0.43125945   
   1234000   0.44988556     3.4510988     -0.44945864   
   1235000   0.44873008     3.4157185     -0.47417937   
   1236000   0.44937061     3.4081783     -0.43296888   
   1237000   0.45049072     3.397394      -0.47912961   
   1238000   0.44925734     3.4219897     -0.42494774   
   1239000   0.44835258     3.4169493     -0.45677677   
   1240000   0.45117181     3.4086484     -0.47208938   
   1241000   0.45175534     3.4096264     -0.45036508   
   1242000   0.45165772     3.41978       -0.47308419   
   1243000   0.44936336     3.430736      -0.39583031   
   1244000   0.45098555     3.4028068     -0.37624757   
   1245000   0.44720623     3.5007076     -0.37034822   
   1246000   0.4474178      3.4411343     -0.51575873   
   1247000   0.45110303     3.4052839     -0.37842557   
   1248000   0.45161665     3.4048603     -0.45767392   
   1249000   0.45191922     3.4179288     -0.40535808   
   1250000   0.45199948     3.3882744     -0.41928088   
   1251000   0.45220667     3.4295837     -0.38479099   
   1252000   0.44620588     3.4360136     -0.46961768   
   1253000   0.45025101     3.401648      -0.42869827   
   1254000   0.45216501     3.4585838     -0.48974418   
   1255000   0.44769292     3.4056092     -0.51551319   
   1256000   0.44790132     3.4345719     -0.4641836    
   1257000   0.45267568     3.402653      -0.45633714   
   1258000   0.44524061     3.4258226     -0.48026382   
   1259000   0.4492691      3.4560254     -0.51893003   
   1260000   0.44860104     3.450371      -0.50325762   
   1261000   0.45007859     3.4477438     -0.3943555    
   1262000   0.45074401     3.3774824     -0.51376578   
   1263000   0.45221508     3.3871063     -0.49482095   
   1264000   0.45163385     3.4079386     -0.55802155   
   1265000   0.44896951     3.425006      -0.49563571   
   1266000   0.45059149     3.4275817     -0.49077789   
   1267000   0.45019804     3.3930474     -0.47349144   
   1268000   0.45062441     3.3988701     -0.37033331   
   1269000   0.44839964     3.4077232     -0.443138     
   1270000   0.44796096     3.4394124     -0.41658364   
   1271000   0.45470489     3.4227103     -0.36185775   
   1272000   0.44894143     3.3825314     -0.31167564   
   1273000   0.4508098      3.4029395     -0.41748264   
   1274000   0.45140483     3.4251568     -0.38128408   
   1275000   0.44638528     3.4040118     -0.43619499   
   1276000   0.45309817     3.4518825     -0.45647572   
   1277000   0.451814       3.3485902     -0.51199199   
   1278000   0.44915844     3.4607917     -0.48175779   
   1279000   0.44878687     3.382591      -0.38832229   
   1280000   0.4504328      3.4505603     -0.47823547   
   1281000   0.44782589     3.3774281     -0.47616225   
   1282000   0.44418312     3.4689971     -0.53613852   
   1283000   0.44816106     3.4558294     -0.48379318   
   1284000   0.45041841     3.3954017     -0.48195635   
   1285000   0.44915748     3.4193618     -0.4184516    
   1286000   0.4510848      3.3807318     -0.44653245   
   1287000   0.45033656     3.3954278     -0.46636627   
   1288000   0.44792531     3.370694      -0.43055933   
   1289000   0.45120357     3.4790604     -0.4569014    
   1290000   0.44603117     3.396462      -0.46660601   
   1291000   0.4504009      3.4456326     -0.39170273   
   1292000   0.45501683     3.4096899     -0.4494639    
   1293000   0.44807163     3.4134802     -0.46155054   
   1294000   0.45087532     3.4289439     -0.52094165   
   1295000   0.45069074     3.4124245     -0.44351094   
   1296000   0.44911447     3.460382      -0.52125912   
   1297000   0.44860199     3.4255501     -0.47460982   
   1298000   0.45278388     3.420599      -0.48873841   
   1299000   0.44844377     3.4850987     -0.49746852   
   1300000   0.45037696     3.4210097     -0.48408653   
   1301000   0.45199925     3.4329358     -0.46765968   
   1302000   0.44954545     3.4556464     -0.46574024   
   1303000   0.44707418     3.4051301     -0.48120525   
   1304000   0.44907811     3.4322666     -0.40920245   
   1305000   0.44923619     3.4450474     -0.48224629   
   1306000   0.44424808     3.4394846     -0.46114221   
   1307000   0.45213677     3.4586603     -0.46851435   
   1308000   0.44620998     3.4598701     -0.4610945    
   1309000   0.45186203     3.4121648     -0.41039837   
   1310000   0.44701564     3.396126      -0.42495291   
   1311000   0.45382231     3.3968566     -0.47411257   
   1312000   0.45294883     3.3899999     -0.44924679   
   1313000   0.44532456     3.4052406     -0.56418373   
   1314000   0.45082676     3.4330896     -0.47681231   
   1315000   0.4543589      3.3878028     -0.49351555   
   1316000   0.44880614     3.3847337     -0.43901766   
   1317000   0.45068886     3.4421359     -0.38896788   
   1318000   0.44824322     3.3488261     -0.43671316   
   1319000   0.44694186     3.3836942     -0.48620458   
   1320000   0.45293169     3.4361827     -0.43904649   
   1321000   0.44859094     3.417938      -0.44542977   
   1322000   0.44770019     3.3930934     -0.38807525   
   1323000   0.45162417     3.4049703     -0.43037973   
   1324000   0.44729251     3.402314      -0.423208     
   1325000   0.44780391     3.4269746     -0.44310414   
   1326000   0.45203856     3.4025549     -0.46939016   
   1327000   0.44780452     3.3870418     -0.43003609   
   1328000   0.4509745      3.4135365     -0.44373513   
   1329000   0.44618546     3.398121      -0.4614651    
   1330000   0.44748557     3.3925215     -0.45241556   
   1331000   0.45415284     3.4200931     -0.43485878   
   1332000   0.44678572     3.3926871     -0.46966665   
   1333000   0.44941511     3.3712578     -0.45535578   
   1334000   0.4523742      3.4272783     -0.47951039   
   1335000   0.45178737     3.4040463     -0.35404612   
   1336000   0.45138384     3.4061534     -0.3775869    
   1337000   0.4510345      3.4538816     -0.4031562    
   1338000   0.45205357     3.3747904     -0.3740577    
   1339000   0.44992017     3.4213721     -0.4147138    
   1340000   0.44757586     3.44362       -0.38150837   
   1341000   0.45195532     3.3750864     -0.45428683   
   1342000   0.45056893     3.3996324     -0.49568046   
   1343000   0.44986708     3.4173519     -0.51035651   
   1344000   0.4529058      3.3888511     -0.50139931   
   1345000   0.45027789     3.4223286     -0.48136361   
   1346000   0.45112423     3.4271969     -0.47918005   
   1347000   0.44661516     3.4483291     -0.48135153   
   1348000   0.4487181      3.4379812     -0.57994847   
   1349000   0.45240409     3.3884098     -0.54153516   
   1350000   0.45395018     3.4300373     -0.51366935   
   1351000   0.44729982     3.3846183     -0.58973076   
   1352000   0.44583015     3.428798      -0.50757425   
   1353000   0.45571128     3.4644036     -0.45435594   
   1354000   0.44704886     3.3830273     -0.41042312   
   1355000   0.44798686     3.3875209     -0.42167679   
   1356000   0.44850317     3.4418068     -0.47484575   
   1357000   0.44542983     3.3661741     -0.51096725   
   1358000   0.45246991     3.4172045     -0.46617628   
   1359000   0.44926745     3.4097253     -0.4880274    
   1360000   0.4460422      3.3793029     -0.46837859   
   1361000   0.45421109     3.4565344     -0.45928736   
   1362000   0.44731296     3.4089832     -0.4731985    
   1363000   0.44459093     3.4288894     -0.47007316   
   1364000   0.45380551     3.4033611     -0.43463602   
   1365000   0.45354946     3.3709799     -0.44555161   
   1366000   0.45131436     3.4440984     -0.43240067   
   1367000   0.44695631     3.3624401     -0.40712267   
   1368000   0.4498903      3.4035218     -0.42240709   
   1369000   0.45382743     3.3770487     -0.56759725   
   1370000   0.45034988     3.3978459     -0.51907757   
   1371000   0.44910632     3.406539      -0.4985787    
   1372000   0.45008447     3.3816523     -0.47422377   
   1373000   0.45185012     3.4734331     -0.48950574   
   1374000   0.44977277     3.3903782     -0.49378803   
   1375000   0.45192515     3.3905449     -0.47038484   
   1376000   0.45239551     3.420879      -0.45444077   
   1377000   0.44253744     3.3922801     -0.4467117    
   1378000   0.45018091     3.4510032     -0.51935817   
   1379000   0.44971525     3.4301134     -0.56961676   
   1380000   0.44507685     3.4331631     -0.46731233   
   1381000   0.45195514     3.4312584     -0.44678921   
   1382000   0.44627391     3.4050481     -0.55223495   
   1383000   0.45119046     3.4539826     -0.44021963   
   1384000   0.44576703     3.4747258     -0.5154383    
   1385000   0.44923898     3.3594648     -0.41018223   
   1386000   0.45055477     3.3940561     -0.42076947   
   1387000   0.45133629     3.371659      -0.43540759   
   1388000   0.44686135     3.4565492     -0.45590214   
   1389000   0.45147989     3.3775282     -0.47096165   
   1390000   0.45188554     3.4123385     -0.47675591   
   1391000   0.4493278      3.4096771     -0.42161031   
   1392000   0.45388505     3.3695631     -0.47392099   
   1393000   0.45138191     3.4015656     -0.44368172   
   1394000   0.45214215     3.3922012     -0.48851822   
   1395000   0.44697193     3.4272305     -0.46171708   
   1396000   0.44964668     3.4089017     -0.38127275   
   1397000   0.45370046     3.4716183     -0.40769232   
   1398000   0.45108428     3.4036274     -0.46806833   
   1399000   0.45065817     3.3644833     -0.44745168   
   1400000   0.45460716     3.443812      -0.47123424   
   1401000   0.44665688     3.3603916     -0.40258943   
   1402000   0.45162465     3.4513712     -0.48835944   
   1403000   0.4519479      3.3320746     -0.45135425   
   1404000   0.45284489     3.3411157     -0.4423931    
   1405000   0.45294151     3.407867      -0.51337168   
   1406000   0.45123875     3.3956635     -0.55112409   
   1407000   0.45287242     3.38943       -0.53269035   
   1408000   0.44954178     3.358717      -0.49991485   
   1409000   0.45221614     3.4025924     -0.51193454   
   1410000   0.44916747     3.4321511     -0.44784471   
   1411000   0.45321209     3.430714      -0.53446094   
   1412000   0.45116609     3.3605705     -0.48976075   
   1413000   0.45282292     3.4178542     -0.38815123   
   1414000   0.44931586     3.4020467     -0.4076272    
   1415000   0.44880229     3.3990867     -0.45131856   
   1416000   0.45381895     3.4334826     -0.39828563   
   1417000   0.44944339     3.3769885     -0.4914937    
   1418000   0.44882018     3.4517271     -0.5136934    
   1419000   0.44775006     3.3731116     -0.48343473   
   1420000   0.45552267     3.4151213     -0.48755267   
   1421000   0.45005823     3.3765723     -0.45069946   
   1422000   0.45094989     3.407001      -0.46824241   
   1423000   0.44775363     3.4234091     -0.43442246   
   1424000   0.44887119     3.3872093     -0.47205245   
   1425000   0.448847       3.398224      -0.43110565   
   1426000   0.44803722     3.4167002     -0.47086985   
   1427000   0.4506763      3.3715915     -0.45020421   
   1428000   0.45023527     3.3990732     -0.39482859   
   1429000   0.45195515     3.3934602     -0.49870244   
   1430000   0.44735503     3.3749414     -0.4710022    
   1431000   0.44975932     3.4332229     -0.4469609    
   1432000   0.45175899     3.4178083     -0.52588739   
   1433000   0.44477673     3.3744184     -0.43341634   
   1434000   0.45147671     3.4532538     -0.45965182   
   1435000   0.45407464     3.3830512     -0.38095731   
   1436000   0.44664009     3.3690119     -0.44553042   
   1437000   0.45403977     3.4220109     -0.44948193   
   1438000   0.44966598     3.3819506     -0.42385967   
   1439000   0.44827673     3.4300529     -0.41280121   
   1440000   0.44882075     3.3898903     -0.47028279   
   1441000   0.45232742     3.427329      -0.43130446   
   1442000   0.45069499     3.3859511     -0.37993819   
   1443000   0.44767331     3.388697      -0.3584366    
   1444000   0.45124294     3.3842521     -0.39573614   
   1445000   0.45147952     3.4187138     -0.47142677   
   1446000   0.4536838      3.3447348     -0.48996944   
   1447000   0.45395162     3.4320181     -0.52138611   
   1448000   0.45122669     3.357883      -0.46582819   
   1449000   0.45553558     3.3994174     -0.4821123    
   1450000   0.45079724     3.3602997     -0.51054798   
   1451000   0.45214912     3.3800452     -0.47779308   
   1452000   0.45156273     3.4229432     -0.48366089   
   1453000   0.45000678     3.401692      -0.44818211   
   1454000   0.45123371     3.3549516     -0.39404151   
   1455000   0.45288749     3.4032528     -0.41750617   
   1456000   0.44828896     3.3934733     -0.50371535   
   1457000   0.45249756     3.3762494     -0.48532523   
   1458000   0.45015271     3.4108356     -0.50662031   
   1459000   0.45038173     3.3799477     -0.49138808   
   1460000   0.4483616      3.3922454     -0.48040571   
   1461000   0.44683003     3.4477832     -0.46436535   
   1462000   0.44730958     3.383718      -0.45293869   
   1463000   0.45020762     3.4452135     -0.47499064   
   1464000   0.45226759     3.4053329     -0.40945107   
   1465000   0.44797365     3.3872446     -0.42487528   
   1466000   0.45154428     3.3935879     -0.47482346   
   1467000   0.44976595     3.4030291     -0.49983346   
   1468000   0.44735168     3.3892475     -0.52113269   
   1469000   0.4492625      3.4022574     -0.43885458   
   1470000   0.44751033     3.4236194     -0.43098666   
   1471000   0.45505865     3.3940611     -0.44899314   
   1472000   0.44625381     3.435054      -0.42415123   
   1473000   0.44736561     3.4319348     -0.51997125   
   1474000   0.45067035     3.4045818     -0.47065045   
   1475000   0.44989873     3.4057952     -0.47504225   
   1476000   0.44870694     3.4438868     -0.45534511   
   1477000   0.45020248     3.3921524     -0.43523011   
   1478000   0.45077581     3.4405836     -0.54338885   
   1479000   0.44641672     3.3964102     -0.39548992   
   1480000   0.45474066     3.3682944     -0.48535977   
   1481000   0.4489741      3.3927829     -0.474663     
   1482000   0.44835628     3.4348103     -0.44619589   
   1483000   0.4465479      3.3961782     -0.49496774   
   1484000   0.45138881     3.3984009     -0.38279782   
   1485000   0.45415221     3.3742963     -0.45595077   
   1486000   0.44753952     3.406898      -0.42837779   
   1487000   0.45185101     3.4226816     -0.43161246   
   1488000   0.45248534     3.4000366     -0.39627713   
   1489000   0.4484132      3.355858      -0.37418027   
   1490000   0.45454424     3.432058      -0.48424351   
   1491000   0.44769865     3.3757193     -0.47091289   
   1492000   0.45422351     3.4490371     -0.4135122    
   1493000   0.451793       3.4281782     -0.48527012   
   1494000   0.44701819     3.3637319     -0.37851181   
   1495000   0.45187562     3.491958      -0.41056373   
   1496000   0.45402075     3.3794831     -0.43624802   
   1497000   0.4525376      3.4346623     -0.43058409   
   1498000   0.44713318     3.4115141     -0.43536701   
   1499000   0.44731383     3.3934891     -0.34410123   
   1500000   0.45599031     3.4451402     -0.50051985   
   1501000   0.44829679     3.3911731     -0.48766451   
   1502000   0.44597079     3.4327518     -0.44485783   
   1503000   0.45315915     3.3911206     -0.43585608   
   1504000   0.44931999     3.3980873     -0.47267168   
   1505000   0.4539885      3.4275178     -0.49530209   
   1506000   0.44809142     3.42648       -0.49986097   
   1507000   0.45377025     3.3856965     -0.50722765   
   1508000   0.45322366     3.387907      -0.43248463   
   1509000   0.4503392      3.3889063     -0.51479704   
   1510000   0.45017249     3.4040202     -0.40573472   
   1511000   0.45219157     3.3977011     -0.36430593   
   1512000   0.44862094     3.5054888     -0.43008094   
   1513000   0.44828237     3.3726192     -0.445711     
   1514000   0.45415488     3.4544097     -0.43651131   
   1515000   0.44835404     3.4275252     -0.45817977   
   1516000   0.45008483     3.4403764     -0.49015333   
   1517000   0.45109342     3.4191519     -0.4837989    
   1518000   0.45084855     3.4553751     -0.41445234   
   1519000   0.44334578     3.3968666     -0.48491892   
   1520000   0.44562854     3.4508331     -0.43881728   
   1521000   0.44976276     3.3952741     -0.45075451   
   1522000   0.44683663     3.3808037     -0.47599318   
   1523000   0.44838522     3.4362949     -0.44371446   
   1524000   0.45044694     3.4084579     -0.47618743   
   1525000   0.44598236     3.4305795     -0.47566131   
   1526000   0.44989477     3.4417118     -0.47123759   
   1527000   0.45171452     3.4046674     -0.39635466   
   1528000   0.44785712     3.3869966     -0.49650774   
   1529000   0.45201891     3.4120279     -0.38623279   
   1530000   0.449606       3.4277027     -0.5128566    
   1531000   0.45110043     3.3926811     -0.47110716   
   1532000   0.44578092     3.4430881     -0.41603017   
   1533000   0.45055506     3.3782258     -0.53246423   
   1534000   0.45502537     3.4390591     -0.48724564   
   1535000   0.44707252     3.328525      -0.54804748   
   1536000   0.44775581     3.5117653     -0.58468943   
   1537000   0.44811557     3.4100767     -0.51703722   
   1538000   0.45363251     3.3970632     -0.57137369   
   1539000   0.45039304     3.4036753     -0.56331691   
   1540000   0.45118099     3.4349778     -0.53688257   
   1541000   0.45057159     3.3865843     -0.4821757    
   1542000   0.45265372     3.3849412     -0.40413897   
   1543000   0.45263529     3.4624785     -0.45447209   
   1544000   0.45049353     3.3289996     -0.51500625   
   1545000   0.44856904     3.466926      -0.41117824   
   1546000   0.450795       3.3671875     -0.47292096   
   1547000   0.45241262     3.3749143     -0.48988979   
   1548000   0.45243683     3.4074764     -0.50208192   
   1549000   0.45220327     3.3745796     -0.42988682   
   1550000   0.45387749     3.4272886     -0.49016942   
   1551000   0.45138545     3.3754225     -0.52276714   
   1552000   0.44717052     3.4278291     -0.48252454   
   1553000   0.44990813     3.4575024     -0.48077209   
   1554000   0.44853121     3.405236      -0.56199968   
   1555000   0.45256698     3.4843404     -0.49480892   
   1556000   0.44970414     3.4038007     -0.44231846   
   1557000   0.4518771      3.4120082     -0.43072099   
   1558000   0.4520498      3.4120663     -0.4745153    
   1559000   0.444697       3.3953133     -0.37184397   
   1560000   0.45101985     3.4357955     -0.44321758   
   1561000   0.44561767     3.4141359     -0.36267674   
   1562000   0.44986395     3.3752508     -0.48743621   
   1563000   0.45052147     3.4369636     -0.45666754   
   1564000   0.44984842     3.3890502     -0.42944734   
   1565000   0.44533205     3.4322234     -0.46501859   
   1566000   0.45789159     3.437667      -0.50244939   
   1567000   0.44506393     3.3844446     -0.40652565   
   1568000   0.45183422     3.4396232     -0.46289331   
   1569000   0.44966548     3.422399      -0.50131346   
   1570000   0.45142009     3.4023261     -0.45239181   
   1571000   0.44728829     3.4304764     -0.44407715   
   1572000   0.45065423     3.3994971     -0.45712944   
   1573000   0.45004927     3.4352657     -0.40236789   
   1574000   0.4502958      3.412465      -0.43032427   
   1575000   0.44737197     3.4129191     -0.42928834   
   1576000   0.44717426     3.37753       -0.40646496   
   1577000   0.45347237     3.3964041     -0.47761703   
   1578000   0.44883646     3.3848981     -0.42397837   
   1579000   0.45286219     3.4456161     -0.44625346   
   1580000   0.44552275     3.3713913     -0.41930286   
   1581000   0.45257124     3.4284448     -0.3634185    
   1582000   0.45080032     3.4518057     -0.46293248   
   1583000   0.44856577     3.4062795     -0.43457834   
   1584000   0.45085107     3.426659      -0.40803951   
   1585000   0.44786743     3.437111      -0.44773012   
   1586000   0.45031148     3.4301213     -0.45571598   
   1587000   0.44853896     3.3969643     -0.48063945   
   1588000   0.44567916     3.4597089     -0.53074133   
   1589000   0.44822424     3.408181      -0.49690151   
   1590000   0.45089761     3.443145      -0.4978597    
   1591000   0.45018365     3.4157832     -0.4448716    
   1592000   0.44727561     3.4268275     -0.42097609   
   1593000   0.44971808     3.4149988     -0.47011217   
   1594000   0.45259103     3.4118516     -0.48185882   
   1595000   0.44380544     3.4585377     -0.40254456   
   1596000   0.44923217     3.4428884     -0.41815581   
   1597000   0.44982129     3.3990415     -0.44868902   
   1598000   0.4531341      3.4047136     -0.40097877   
   1599000   0.45011106     3.448946      -0.4610398    
   1600000   0.44868894     3.3603269     -0.43709291   
   1601000   0.45507759     3.4674363     -0.49347445   
   1602000   0.4473449      3.4028382     -0.40661765   
   1603000   0.44947914     3.4412579     -0.39642512   
   1604000   0.45328413     3.4290786     -0.47909279   
   1605000   0.45010394     3.348765      -0.4935994    
   1606000   0.45282682     3.4230817     -0.49854668   
   1607000   0.44472322     3.3890013     -0.46276394   
   1608000   0.45402587     3.3614944     -0.47555266   
   1609000   0.45447851     3.4267328     -0.56050694   
   1610000   0.44675278     3.3497548     -0.46423731   
   1611000   0.45179975     3.4462987     -0.51196747   
   1612000   0.44692511     3.3942524     -0.45338333   
   1613000   0.44868637     3.37094       -0.47295944   
   1614000   0.45250857     3.4098809     -0.46733228   
   1615000   0.44275025     3.3596307     -0.39825378   
   1616000   0.45734329     3.4074749     -0.45207216   
   1617000   0.44881673     3.3673262     -0.48036613   
   1618000   0.44987887     3.3515619     -0.46965658   
   1619000   0.44942837     3.3864869     -0.51958889   
   1620000   0.45047642     3.378728      -0.47016076   
   1621000   0.4485839      3.3762469     -0.56493103   
   1622000   0.45332827     3.4530837     -0.55267107   
   1623000   0.44575004     3.3873588     -0.49981612   
   1624000   0.44624859     3.4194428     -0.50774268   
   1625000   0.44855502     3.4558739     -0.48539735   
   1626000   0.44806942     3.4234705     -0.50310039   
   1627000   0.45278271     3.464897      -0.50908723   
   1628000   0.4488318      3.4387525     -0.49675714   
   1629000   0.45101632     3.4302449     -0.55430807   
   1630000   0.45119482     3.4126306     -0.41390202   
   1631000   0.44751266     3.4302915     -0.48740071   
   1632000   0.45382553     3.3994154     -0.37865504   
   1633000   0.44965247     3.4340717     -0.41940795   
   1634000   0.4501631      3.3977592     -0.47391898   
   1635000   0.4549896      3.4325119     -0.48706733   
   1636000   0.44892998     3.4273307     -0.41591637   
   1637000   0.4486308      3.4466785     -0.44287727   
   1638000   0.45126278     3.4791096     -0.45707214   
   1639000   0.44782457     3.4004817     -0.43166175   
   1640000   0.44921419     3.4664137     -0.42685357   
   1641000   0.45082122     3.4137216     -0.46587573   
   1642000   0.45019764     3.4048089     -0.54598828   
   1643000   0.44948283     3.3929782     -0.47767668   
   1644000   0.45186133     3.4045259     -0.49284625   
   1645000   0.45345723     3.3905961     -0.4418332    
   1646000   0.44799564     3.3889131     -0.49974842   
   1647000   0.45171153     3.4324973     -0.48069847   
   1648000   0.44889429     3.442527      -0.5415871    
   1649000   0.44881757     3.4155737     -0.43884116   
   1650000   0.45168895     3.4486276     -0.37824963   
   1651000   0.44476526     3.3989642     -0.46233623   
   1652000   0.44957763     3.446556      -0.45313841   
   1653000   0.45015984     3.4566266     -0.37546928   
   1654000   0.44790125     3.4144636     -0.37245848   
   1655000   0.4528055      3.3902066     -0.43431444   
   1656000   0.44803563     3.3922333     -0.39344843   
   1657000   0.45125448     3.4156264     -0.38690959   
   1658000   0.44759765     3.3876606     -0.48281632   
   1659000   0.45072057     3.4295509     -0.38512567   
   1660000   0.44865607     3.3875325     -0.45252252   
   1661000   0.44817784     3.3781672     -0.47929621   
   1662000   0.44487873     3.3939819     -0.36005627   
   1663000   0.45272742     3.3685228     -0.41203392   
   1664000   0.44913004     3.3681857     -0.46476288   
   1665000   0.44734896     3.3937347     -0.45418638   
   1666000   0.45334577     3.4121016     -0.39195179   
   1667000   0.45254497     3.3791886     -0.45510403   
   1668000   0.44765516     3.3824744     -0.47515148   
   1669000   0.45182502     3.413483      -0.43399774   
   1670000   0.45062448     3.3691948     -0.46650596   
   1671000   0.4526831      3.37594       -0.47322014   
   1672000   0.45065325     3.4187356     -0.46579575   
   1673000   0.44907775     3.3474458     -0.44483788   
   1674000   0.45490368     3.4563443     -0.48505807   
   1675000   0.44916772     3.3712398     -0.47628212   
   1676000   0.4446551      3.424082      -0.41009827   
   1677000   0.45476168     3.3917713     -0.46465461   
   1678000   0.45054004     3.3778928     -0.4264539    
   1679000   0.45015373     3.3921059     -0.49620791   
   1680000   0.45164899     3.4172706     -0.49546908   
   1681000   0.45093164     3.4332873     -0.48432317   
   1682000   0.44895844     3.4162634     -0.40993844   
   1683000   0.45333592     3.4013049     -0.47650094   
   1684000   0.45097651     3.4130802     -0.43328876   
   1685000   0.44695509     3.3808137     -0.42163576   
   1686000   0.45087871     3.4671864     -0.42979087   
   1687000   0.44938995     3.3764748     -0.4986636    
   1688000   0.45024679     3.4209061     -0.51553093   
   1689000   0.4510624      3.4316048     -0.47125535   
   1690000   0.45377825     3.4295452     -0.48383775   
   1691000   0.45202967     3.3900156     -0.43279942   
   1692000   0.45202439     3.3896417     -0.53023536   
   1693000   0.45018518     3.4246816     -0.47349254   
   1694000   0.45427488     3.3866878     -0.47851518   
   1695000   0.45255584     3.3755296     -0.51522367   
   1696000   0.45428432     3.4366405     -0.50868033   
   1697000   0.44945616     3.4112731     -0.40514789   
   1698000   0.45167469     3.3689247     -0.5006789    
   1699000   0.45066464     3.4488165     -0.50448963   
   1700000   0.45018398     3.3730704     -0.42735229   
   1701000   0.44983823     3.4272058     -0.46918565   
   1702000   0.45434455     3.4340946     -0.45358162   
   1703000   0.45000074     3.3846632     -0.44484311   
   1704000   0.45510754     3.4472511     -0.44665655   
   1705000   0.45046777     3.3584374     -0.39578653   
   1706000   0.45368815     3.3671748     -0.46464696   
   1707000   0.44658904     3.4537336     -0.42276712   
   1708000   0.44800499     3.3765662     -0.47589487   
   1709000   0.45211803     3.4540368     -0.46273788   
   1710000   0.44518773     3.4188408     -0.44734315   
   1711000   0.44850258     3.4570675     -0.4062143    
   1712000   0.44946487     3.422957      -0.48688297   
   1713000   0.44906316     3.3962087     -0.3981123    
   1714000   0.45505243     3.4552924     -0.43499409   
   1715000   0.44103095     3.4000549     -0.44972926   
   1716000   0.45012643     3.4213371     -0.45848175   
   1717000   0.45247234     3.4329624     -0.47838973   
   1718000   0.44873019     3.3929211     -0.44077843   
   1719000   0.45076326     3.3895971     -0.49425662   
   1720000   0.44962522     3.3690959     -0.48446988   
   1721000   0.44830381     3.4469028     -0.53377086   
   1722000   0.44861133     3.4297576     -0.41757208   
   1723000   0.45226256     3.4246553     -0.42511357   
   1724000   0.44943663     3.4102001     -0.51361622   
   1725000   0.4514832      3.4064924     -0.46852433   
   1726000   0.44802722     3.4692995     -0.44945553   
   1727000   0.44869572     3.3806842     -0.48007042   
   1728000   0.45429148     3.4581205     -0.41405527   
   1729000   0.44690334     3.4196182     -0.48185793   
   1730000   0.44507934     3.4622232     -0.45860584   
   1731000   0.45086624     3.4017554     -0.40972719   
   1732000   0.44997115     3.3780555     -0.3903766    
   1733000   0.4506299      3.3886735     -0.45747816   
   1734000   0.45541288     3.4065215     -0.50954675   
   1735000   0.44706486     3.4212484     -0.44939289   
   1736000   0.44707011     3.388069      -0.45691773   
   1737000   0.45081324     3.3954432     -0.45673595   
   1738000   0.45064711     3.389245      -0.39785477   
   1739000   0.4540894      3.370522      -0.48592301   
   1740000   0.45021748     3.4323471     -0.49054764   
   1741000   0.44831832     3.3846015     -0.48209233   
   1742000   0.45482175     3.4359986     -0.51495024   
   1743000   0.447743       3.3956912     -0.54013414   
   1744000   0.44914173     3.4162855     -0.43471362   
   1745000   0.44854923     3.49103       -0.3547833    
   1746000   0.44783661     3.3700612     -0.43882661   
   1747000   0.45092151     3.4177993     -0.47983441   
   1748000   0.45146616     3.3805891     -0.4187602    
   1749000   0.44818022     3.4018327     -0.42344855   
   1750000   0.45302952     3.402186      -0.53461471   
   1751000   0.45281504     3.3969589     -0.43217982   
   1752000   0.44689198     3.3800244     -0.4803155    
   1753000   0.45079725     3.4474374     -0.53183365   
   1754000   0.44393878     3.3752249     -0.45598126   
   1755000   0.44942335     3.4038076     -0.523324     
   1756000   0.45332633     3.3682463     -0.4147574    
   1757000   0.45260794     3.416661      -0.52709946   
   1758000   0.44587129     3.4230497     -0.47917435   
   1759000   0.45250598     3.4381159     -0.45288471   
   1760000   0.45004983     3.4708341     -0.38399901   
   1761000   0.4499482      3.3904091     -0.42228871   
   1762000   0.45085325     3.4396617     -0.46611332   
   1763000   0.44844557     3.3854947     -0.47718321   
   1764000   0.45198458     3.3712026     -0.52483958   
   1765000   0.4515822      3.3903932     -0.46295719   
   1766000   0.4467277      3.3741849     -0.39332554   
   1767000   0.44853824     3.4186197     -0.43408547   
   1768000   0.44895456     3.401002      -0.4141895    
   1769000   0.45027397     3.3808604     -0.52541266   
   1770000   0.45300267     3.3983675     -0.49291581   
   1771000   0.45107414     3.4157813     -0.48600432   
   1772000   0.44250147     3.432775      -0.47613792   
   1773000   0.45012902     3.4284952     -0.45040164   
   1774000   0.44977259     3.4041303     -0.41454139   
   1775000   0.4548868      3.4145036     -0.43269597   
   1776000   0.44902666     3.407338      -0.53060851   
   1777000   0.45249354     3.389246      -0.43471302   
   1778000   0.45284601     3.4282502     -0.4634938    
   1779000   0.44541428     3.4605306     -0.46992761   
   1780000   0.44731964     3.4006086     -0.45514193   
   1781000   0.45169334     3.4100803     -0.46550196   
   1782000   0.4534083      3.382028      -0.46567823   
   1783000   0.44457896     3.3833066     -0.50884307   
   1784000   0.45303194     3.4618255     -0.51319193   
   1785000   0.44744084     3.4153963     -0.59176618   
   1786000   0.44962168     3.4221781     -0.48149095   
   1787000   0.44897774     3.4407357     -0.53135323   
   1788000   0.44830196     3.3999755     -0.50420646   
   1789000   0.4516195      3.4075144     -0.43763342   
   1790000   0.44703099     3.441847      -0.41296512   
   1791000   0.44715224     3.4315805     -0.46931912   
   1792000   0.45215553     3.3860984     -0.3715732    
   1793000   0.45003755     3.3776663     -0.42200105   
   1794000   0.45306101     3.4205491     -0.3771785    
   1795000   0.44797843     3.3323703     -0.38945183   
   1796000   0.44793663     3.4301793     -0.46992596   
   1797000   0.44777893     3.3751166     -0.52716241   
   1798000   0.45499385     3.3752807     -0.46367749   
   1799000   0.44968133     3.3631383     -0.54291045   
   1800000   0.45253331     3.4547261     -0.54853586   
   1801000   0.45330074     3.3596793     -0.55000299   
   1802000   0.45284502     3.4021911     -0.4995369    
   1803000   0.44978511     3.4567023     -0.53581309   
   1804000   0.44558244     3.3848464     -0.47568369   
   1805000   0.45542757     3.4772747     -0.51042084   
   1806000   0.44628774     3.4248994     -0.51891107   
   1807000   0.44953013     3.4369452     -0.56947911   
   1808000   0.44926566     3.4535717     -0.49630438   
   1809000   0.44883572     3.3809955     -0.45903028   
   1810000   0.45094557     3.4724951     -0.47029665   
   1811000   0.4497447      3.4476682     -0.50317646   
   1812000   0.44645381     3.4422255     -0.53685021   
   1813000   0.44925593     3.4480193     -0.56917921   
   1814000   0.44977418     3.4431786     -0.45341562   
   1815000   0.44903114     3.4125006     -0.52027482   
   1816000   0.4525971      3.449522      -0.49516345   
   1817000   0.45034832     3.4088923     -0.44212735   
   1818000   0.44724103     3.4204945     -0.48532544   
   1819000   0.45215131     3.4595914     -0.45149467   
   1820000   0.44795195     3.4200995     -0.43695602   
   1821000   0.45168618     3.4756105     -0.46548462   
   1822000   0.44602402     3.4055024     -0.43717124   
   1823000   0.44780237     3.4292314     -0.42393453   
   1824000   0.4480657      3.3893538     -0.39171152   
   1825000   0.45085147     3.4316334     -0.42454052   
   1826000   0.44892917     3.4445774     -0.40210132   
   1827000   0.44582321     3.3968821     -0.48536521   
   1828000   0.4517897      3.4181656     -0.54501277   
   1829000   0.4476621      3.3794356     -0.40262579   
   1830000   0.44872197     3.3998555     -0.56150817   
   1831000   0.4532291      3.3988457     -0.52142222   
   1832000   0.44817017     3.3429913     -0.48783146   
   1833000   0.45126769     3.4037696     -0.52392036   
   1834000   0.45289932     3.4283158     -0.45672663   
   1835000   0.4502278      3.390579      -0.3935419    
   1836000   0.44873318     3.4412111     -0.40828073   
   1837000   0.44670397     3.4010537     -0.42109363   
   1838000   0.45048804     3.4036273     -0.45447594   
   1839000   0.45347335     3.4211394     -0.38660093   
   1840000   0.45258302     3.4395871     -0.45219863   
   1841000   0.45172207     3.4140664     -0.36764338   
   1842000   0.45092753     3.3764632     -0.45205021   
   1843000   0.45156499     3.4127879     -0.36788088   
   1844000   0.45230871     3.4069264     -0.49005927   
   1845000   0.45222041     3.392962      -0.43398169   
   1846000   0.45499558     3.3964515     -0.45451606   
   1847000   0.44901547     3.4053849     -0.53624742   
   1848000   0.44783133     3.3792204     -0.53490008   
   1849000   0.45423653     3.4763716     -0.45150691   
   1850000   0.44547896     3.3867083     -0.57863405   
   1851000   0.44923105     3.4003397     -0.48747712   
   1852000   0.45126385     3.4107498     -0.49620673   
   1853000   0.44584693     3.3977339     -0.47735385   
   1854000   0.45348989     3.4331707     -0.47614082   
   1855000   0.44566589     3.4014873     -0.44869055   
   1856000   0.45532135     3.4742464     -0.51491367   
   1857000   0.44372351     3.4495028     -0.54068952   
   1858000   0.44918563     3.4141923     -0.42535371   
   1859000   0.44697715     3.4121512     -0.4842677    
   1860000   0.45144668     3.4018856     -0.50019677   
   1861000   0.451924       3.448957      -0.46702172   
   1862000   0.44538055     3.3807793     -0.42304929   
   1863000   0.45369795     3.4339368     -0.43184245   
   1864000   0.44963051     3.3584912     -0.47195222   
   1865000   0.45006595     3.4231598     -0.4591782    
   1866000   0.45302811     3.3857738     -0.45373589   
   1867000   0.45068341     3.3503645     -0.48132366   
   1868000   0.45428746     3.4034312     -0.41359202   
   1869000   0.44429332     3.413726      -0.55669273   
   1870000   0.45407705     3.5092552     -0.49636304   
   1871000   0.44659862     3.3705326     -0.44293118   
   1872000   0.45218115     3.4230854     -0.45520115   
   1873000   0.45000007     3.3856949     -0.45614725   
   1874000   0.4482279      3.404264      -0.41068713   
   1875000   0.44921408     3.458557      -0.45281782   
   1876000   0.44774707     3.4114812     -0.47130824   
   1877000   0.45163952     3.4001893     -0.48553873   
   1878000   0.45117982     3.4443754     -0.4652972    
   1879000   0.45076703     3.4150276     -0.51690284   
   1880000   0.44576414     3.4152237     -0.49966679   
   1881000   0.45298701     3.4141054     -0.47234564   
   1882000   0.448298       3.4437935     -0.44210805   
   1883000   0.45003083     3.4028257     -0.43629723   
   1884000   0.4506846      3.4186669     -0.49132594   
   1885000   0.44837373     3.3662921     -0.49008939   
   1886000   0.44696434     3.3738589     -0.52151197   
   1887000   0.45272905     3.4197679     -0.39878756   
   1888000   0.44689128     3.3868498     -0.49049852   
   1889000   0.45043408     3.4086633     -0.54981746   
   1890000   0.44925656     3.3866424     -0.47290302   
   1891000   0.45258833     3.4097286     -0.43180052   
   1892000   0.44957627     3.4139247     -0.46514472   
   1893000   0.44788035     3.384376      -0.47695934   
   1894000   0.45161678     3.4555287     -0.46572124   
   1895000   0.44944801     3.3789076     -0.42437239   
   1896000   0.45236397     3.4056758     -0.50250119   
   1897000   0.45047405     3.3927636     -0.40149446   
   1898000   0.45360907     3.4006474     -0.51252046   
   1899000   0.44675796     3.4299858     -0.47405478   
   1900000   0.45026118     3.4233416     -0.51683782   
   1901000   0.4495174      3.4688504     -0.43438995   
   1902000   0.45104855     3.400338      -0.48405756   
   1903000   0.44669876     3.458568      -0.44405131   
   1904000   0.44910192     3.4327694     -0.49219177   
   1905000   0.44890933     3.4139309     -0.52017737   
   1906000   0.45171216     3.4567262     -0.46520405   
   1907000   0.4449154      3.3811814     -0.42968836   
   1908000   0.44694394     3.4674844     -0.3854429    
   1909000   0.44680264     3.3933117     -0.4284004    
[...]
   5228000   0.4492941      3.3895219     -0.47121297   
   5229000   0.44852526     3.4184655     -0.51872744   
   5230000   0.44767107     3.4252319     -0.50596441   
   5231000   0.45093753     3.3830102     -0.49922982   
   5232000   0.44821029     3.377388      -0.43572091   
   5233000   0.45263682     3.3905477     -0.45376583   
   5234000   0.44989686     3.3670006     -0.53169558   
   5235000   0.45246377     3.4699007     -0.44291156   
   5236000   0.44594082     3.3881028     -0.47097813   
   5237000   0.4519355      3.4398298     -0.53491881   
   5238000   0.44770454     3.4179992     -0.51109412   
   5239000   0.44841867     3.3563487     -0.42584853   
   5240000   0.45404804     3.4685268     -0.45833311   
   5241000   0.45305888     3.3699044     -0.52962818   
   5242000   0.4482928      3.3603223     -0.44495073   
   5243000   0.45764316     3.4729879     -0.46610694   
   5244000   0.44363082     3.2978859     -0.49558054   
   5245000   0.45642596     3.4391754     -0.53342467   
   5246000   0.44556677     3.4080358     -0.39852811   
   5247000   0.4489387      3.4125795     -0.52714379   
   5248000   0.45513599     3.3877303     -0.48894135   
   5249000   0.44531918     3.3412107     -0.45969164   
   5250000   0.451423       3.4385295     -0.4262544    
   5251000   0.44972123     3.4320586     -0.41015588   
   5252000   0.44775806     3.3755655     -0.43591681   
   5253000   0.45234184     3.454418      -0.48553104   
   5254000   0.44764672     3.40444       -0.4335029    
   5255000   0.44786547     3.4540104     -0.4831566    
   5256000   0.44691364     3.4667453     -0.50383352   
   5257000   0.44787859     3.3763181     -0.46854248   
   5258000   0.45258436     3.4278958     -0.42588466   
   5259000   0.44845479     3.4275972     -0.46490191   
   5260000   0.45059283     3.4237994     -0.51456138   
   5261000   0.4501205      3.3507794     -0.37662082   
   5262000   0.45306734     3.4461576     -0.48541414   
   5263000   0.44619494     3.4253841     -0.45827423   
   5264000   0.44609398     3.4584591     -0.43870736   
   5265000   0.45149847     3.4832278     -0.50762683   
   5266000   0.44778533     3.3379946     -0.45945112   
   5267000   0.45171873     3.4434935     -0.46471239   
   5268000   0.44769731     3.4355428     -0.43503044   
   5269000   0.44943277     3.4004137     -0.53014093   
   5270000   0.45004812     3.4902954     -0.47023188   
   5271000   0.44959612     3.4134083     -0.51969288   
   5272000   0.45047515     3.4488317     -0.42287474   
   5273000   0.45595226     3.411319      -0.46780203   
   5274000   0.44594589     3.396006      -0.46607969   
   5275000   0.44576315     3.4716727     -0.4171657    
   5276000   0.44991957     3.4096901     -0.4437541    
   5277000   0.45268032     3.4275496     -0.46429669   
   5278000   0.44751455     3.4245779     -0.48272184   
   5279000   0.45432742     3.4384359     -0.51829999   
   5280000   0.45037433     3.4070355     -0.40341194   
   5281000   0.44682711     3.4411631     -0.44420162   
   5282000   0.45142291     3.4378907     -0.43841825   
   5283000   0.45054207     3.4198284     -0.44921289   
   5284000   0.44875693     3.4286977     -0.46809626   
   5285000   0.449728       3.3818269     -0.46742107   
   5286000   0.4529798      3.433061      -0.3900617    
   5287000   0.4514441      3.404465      -0.47304812   
   5288000   0.44940375     3.4122647     -0.49607942   
   5289000   0.45168363     3.4032836     -0.46086135   
   5290000   0.44788352     3.416961      -0.42193524   
   5291000   0.44765962     3.4100637     -0.48916256   
   5292000   0.45237581     3.3794514     -0.47806611   
   5293000   0.45206453     3.3824705     -0.43331934   
   5294000   0.44704981     3.4111706     -0.45553426   
   5295000   0.44852216     3.3870227     -0.52087518   
   5296000   0.44995322     3.4217945     -0.53089176   
   5297000   0.45330252     3.4407309     -0.54177767   
   5298000   0.44978127     3.4159389     -0.47610831   
   5299000   0.44809268     3.5077366     -0.433229     
   5300000   0.45000153     3.4215014     -0.42343612   
   5301000   0.45154788     3.387892      -0.4744898    
   5302000   0.45020752     3.4530853     -0.50068722   
   5303000   0.4466912      3.4065834     -0.44840956   
   5304000   0.45036614     3.3839124     -0.44171866   
   5305000   0.44990668     3.3926142     -0.4310246    
   5306000   0.44614147     3.4037589     -0.4186918    
   5307000   0.44812408     3.3593192     -0.41342984   
   5308000   0.44766909     3.4358146     -0.38155115   
   5309000   0.44968173     3.3589629     -0.4103016    
   5310000   0.45270151     3.4475324     -0.39551164   
   5311000   0.44851979     3.3889987     -0.42374698   
   5312000   0.45337025     3.3625716     -0.43212913   
   5313000   0.4546885      3.4095899     -0.46659961   
   5314000   0.44711236     3.344865      -0.46714688   
   5315000   0.44914255     3.4506925     -0.47612269   
   5316000   0.45168597     3.3716163     -0.44269561   
   5317000   0.44766208     3.4023828     -0.4579575    
   5318000   0.45100188     3.3996142     -0.47780881   
   5319000   0.45020941     3.4505868     -0.44634517   
   5320000   0.45370215     3.4071981     -0.39843898   
   5321000   0.44882468     3.4337945     -0.44340956   
   5322000   0.4490874      3.3832801     -0.47537307   
   5323000   0.45287922     3.3666415     -0.5353864    
   5324000   0.45473642     3.3709282     -0.49932027   
   5325000   0.45233049     3.4285609     -0.4976312    
   5326000   0.44878386     3.4091975     -0.46922057   
   5327000   0.44804788     3.3910866     -0.48001738   
   5328000   0.45237492     3.4187461     -0.4192008    
   5329000   0.44703015     3.3753723     -0.44599976   
   5330000   0.45396731     3.4304251     -0.42874884   
   5331000   0.44764222     3.3738909     -0.4302592    
   5332000   0.44879103     3.4321748     -0.33488799   
   5333000   0.44806968     3.4681863     -0.45707647   
   5334000   0.44560074     3.3795746     -0.4213356    
   5335000   0.44933707     3.4330534     -0.42027062   
   5336000   0.45159324     3.4036179     -0.45494431   
   5337000   0.44742804     3.397913      -0.46714204   
   5338000   0.45035306     3.4219872     -0.52950976   
   5339000   0.44907608     3.3956227     -0.42940617   
   5340000   0.44730205     3.4099654     -0.39012651   
   5341000   0.45117969     3.3460765     -0.51406055   
   5342000   0.44806434     3.3578829     -0.51864417   
   5343000   0.45025372     3.4132972     -0.57288217   
   5344000   0.45282061     3.3897762     -0.52440644   
   5345000   0.44729346     3.3962599     -0.47031234   
   5346000   0.45666589     3.3981028     -0.46875074   
   5347000   0.44607998     3.4136934     -0.46085251   
   5348000   0.44956434     3.4015126     -0.51975305   
   5349000   0.45181551     3.4596338     -0.44015392   
   5350000   0.44887942     3.4166281     -0.44814621   
   5351000   0.45309329     3.3786557     -0.39639002   
   5352000   0.4538137      3.3602646     -0.43916626   
   5353000   0.44749511     3.3735481     -0.51846056   
   5354000   0.45452222     3.4251886     -0.49019348   
   5355000   0.44978228     3.3894879     -0.54507004   
   5356000   0.45334122     3.4067056     -0.57489453   
   5357000   0.45241175     3.4180794     -0.4787737    
   5358000   0.44680907     3.3855427     -0.47136904   
   5359000   0.44959532     3.4575572     -0.43486168   
   5360000   0.45501074     3.4005151     -0.39245837   
   5361000   0.44781874     3.4174053     -0.42670736   
   5362000   0.44805603     3.4184954     -0.45549411   
   5363000   0.44782045     3.4447684     -0.43365606   
   5364000   0.45149353     3.4278455     -0.44408103   
   5365000   0.44847291     3.4150945     -0.44658212   
   5366000   0.45281787     3.4033235     -0.47819096   
   5367000   0.44810801     3.373684      -0.42362836   
   5368000   0.44997419     3.4353304     -0.53307476   
   5369000   0.45100513     3.4271062     -0.52359777   
   5370000   0.45189268     3.406702      -0.47324614   
   5371000   0.44660531     3.4234857     -0.48329093   
   5372000   0.45653451     3.412268      -0.49883331   
   5373000   0.44940983     3.3997856     -0.53291369   
   5374000   0.44911466     3.4055632     -0.44922368   
   5375000   0.45278086     3.5147522     -0.50421763   
   5376000   0.45025104     3.3649946     -0.42146852   
   5377000   0.45309153     3.4377714     -0.54323975   
   5378000   0.4519341      3.4203806     -0.53637307   
   5379000   0.45040258     3.4488649     -0.50695301   
   5380000   0.45106243     3.4590099     -0.43749939   
   5381000   0.44832412     3.4059931     -0.44704951   
   5382000   0.45323601     3.4396434     -0.49272047   
   5383000   0.4514619      3.4704465     -0.43728246   
   5384000   0.44929022     3.3562489     -0.39806712   
   5385000   0.45513817     3.4622172     -0.37770805   
   5386000   0.44475354     3.4013133     -0.48835379   
   5387000   0.44701839     3.4034618     -0.45997304   
   5388000   0.4509991      3.4193142     -0.46228052   
   5389000   0.45135646     3.3678047     -0.39122114   
   5390000   0.44485508     3.4454808     -0.48252231   
   5391000   0.44899524     3.4352414     -0.46668342   
   5392000   0.45047937     3.4195398     -0.47688128   
   5393000   0.44776169     3.3891995     -0.39953332   
   5394000   0.45399842     3.414131      -0.46255469   
   5395000   0.4417411      3.4290755     -0.47422908   
   5396000   0.45548989     3.4587986     -0.42234245   
   5397000   0.44534621     3.3922395     -0.41821235   
   5398000   0.44988095     3.3789753     -0.44687501   
   5399000   0.45055431     3.4505219     -0.38231517   
   5400000   0.45141901     3.3574082     -0.4886695    
   5401000   0.45329109     3.4828345     -0.42815314   
   5402000   0.44604399     3.4141882     -0.50294814   
   5403000   0.4529577      3.4805087     -0.4280387    
   5404000   0.45303978     3.4581493     -0.42446385   
   5405000   0.44522624     3.3922213     -0.43056424   
   5406000   0.45377506     3.4618655     -0.42128343   
   5407000   0.44923085     3.4255386     -0.4516236    
   5408000   0.45118923     3.390968      -0.45390743   
   5409000   0.44912776     3.4258765     -0.48374998   
   5410000   0.44880744     3.4065658     -0.41248714   
   5411000   0.45548618     3.4596221     -0.54739393   
   5412000   0.45117538     3.3664748     -0.3927484    
   5413000   0.45330702     3.4226964     -0.43740823   
   5414000   0.44626303     3.4275325     -0.37562691   
   5415000   0.44855599     3.4315129     -0.39603909   
   5416000   0.45096124     3.4020064     -0.43095226   
   5417000   0.4505158      3.3841976     -0.47460797   
   5418000   0.45213324     3.4654847     -0.51449797   
   5419000   0.45025493     3.3721747     -0.52141297   
   5420000   0.4481271      3.458205      -0.46275923   
   5421000   0.44910675     3.4489178     -0.51270233   
   5422000   0.44746948     3.3827228     -0.45544547   
   5423000   0.45440124     3.5181114     -0.45683955   
   5424000   0.44243483     3.3870719     -0.47502377   
   5425000   0.45061113     3.4232717     -0.50968441   
   5426000   0.45341288     3.4244674     -0.5439438    
   5427000   0.44901267     3.4334369     -0.45672251   
   5428000   0.45361877     3.4129726     -0.48442918   
   5429000   0.44634983     3.3981489     -0.43222064   
   5430000   0.44651924     3.4524569     -0.385222     
   5431000   0.45038066     3.4184208     -0.4551874    
   5432000   0.4531152      3.3849496     -0.43854986   
   5433000   0.45031061     3.4260757     -0.42686074   
   5434000   0.45544559     3.4167351     -0.39867866   
   5435000   0.44687005     3.3701692     -0.52093553   
   5436000   0.45320334     3.4032996     -0.46803051   
   5437000   0.45050248     3.3894154     -0.49600573   
   5438000   0.45059484     3.3951766     -0.50890905   
   5439000   0.45250579     3.3948313     -0.5133469    
   5440000   0.44636436     3.3903949     -0.55985629   
   5441000   0.4546579      3.3983397     -0.53978144   
   5442000   0.45136958     3.4145556     -0.53786218   
   5443000   0.45211649     3.378002      -0.49083792   
   5444000   0.45714426     3.4164222     -0.46447334   
   5445000   0.44817331     3.377042      -0.37629842   
   5446000   0.45063063     3.4546384     -0.35632861   
   5447000   0.45462265     3.3847529     -0.40744864   
   5448000   0.45056764     3.4448929     -0.43909953   
   5449000   0.45169153     3.3619642     -0.40534151   
   5450000   0.45255813     3.3817304     -0.46304867   
   5451000   0.44787603     3.3637575     -0.51694359   
   5452000   0.45224762     3.4151724     -0.40893702   
   5453000   0.45458976     3.4072964     -0.41943756   
   5454000   0.4475623      3.3663204     -0.43384825   
   5455000   0.45208506     3.4415041     -0.52733031   
   5456000   0.45112101     3.4502077     -0.46741571   
   5457000   0.44334673     3.4011792     -0.4839008    
   5458000   0.45287609     3.4562495     -0.55347075   
   5459000   0.44771535     3.4012353     -0.51990326   
   5460000   0.44562496     3.4725789     -0.46511052   
   5461000   0.45098461     3.4348345     -0.48342969   
   5462000   0.4520421      3.439669      -0.50308749   
   5463000   0.45099594     3.4008202     -0.46515001   
   5464000   0.44711103     3.4370506     -0.43104675   
   5465000   0.44747791     3.4025324     -0.35532964   
   5466000   0.45241077     3.3815598     -0.35765232   
   5467000   0.4467302      3.4304493     -0.48785002   
   5468000   0.45077877     3.3856112     -0.43297236   
   5469000   0.45166451     3.4500676     -0.42475977   
   5470000   0.44367045     3.3642817     -0.47163771   
   5471000   0.45131235     3.4162285     -0.40962002   
   5472000   0.44908688     3.395873      -0.40409443   
   5473000   0.44788456     3.3648576     -0.42968497   
   5474000   0.45569162     3.3950377     -0.4762101    
   5475000   0.44560041     3.3544065     -0.41173868   
   5476000   0.45208282     3.463273      -0.52844514   
   5477000   0.44826038     3.3857018     -0.52390934   
   5478000   0.44763838     3.3573599     -0.52738101   
   5479000   0.45480509     3.43541       -0.45668956   
   5480000   0.44427608     3.4042629     -0.54312391   
   5481000   0.44932332     3.4088849     -0.51720772   
   5482000   0.454649       3.4433498     -0.43229855   
   5483000   0.44829782     3.3819024     -0.50867865   
   5484000   0.45298108     3.4108635     -0.42495819   
   5485000   0.44894916     3.4268153     -0.50734773   
   5486000   0.45359812     3.417486      -0.3750985    
   5487000   0.45231611     3.4219274     -0.43067874   
   5488000   0.44980561     3.4615406     -0.50021656   
   5489000   0.45410664     3.4579617     -0.51243353   
   5490000   0.44685374     3.402372      -0.42851266   
   5491000   0.45049065     3.4363855     -0.39385568   
   5492000   0.44887807     3.4149172     -0.43879777   
   5493000   0.4507782      3.4386403     -0.50278403   
   5494000   0.4524706      3.4567898     -0.46352509   
   5495000   0.44780324     3.4140941     -0.48685442   
   5496000   0.4522797      3.446073      -0.45372797   
   5497000   0.446553       3.4021832     -0.52410202   
   5498000   0.45528081     3.4108978     -0.48051876   
   5499000   0.44563802     3.4186219     -0.44147518   
   5500000   0.45257709     3.4285883     -0.40312651   
   5501000   0.45038931     3.4243401     -0.36345276   
   5502000   0.44884939     3.4182945     -0.4359349    
   5503000   0.44807687     3.4024588     -0.43770375   
   5504000   0.45083017     3.3733683     -0.43949854   
   5505000   0.45483755     3.4297067     -0.4600702    
   5506000   0.44593269     3.391635      -0.45349228   
   5507000   0.45346232     3.4124976     -0.4509534    
   5508000   0.45008676     3.4091356     -0.40242867   
   5509000   0.44663507     3.4047996     -0.43322159   
   5510000   0.4512128      3.4403136     -0.43330813   
   5511000   0.4519494      3.3742307     -0.38928397   
   5512000   0.44977978     3.4637857     -0.41061203   
   5513000   0.45114505     3.3800098     -0.49473766   
   5514000   0.44844975     3.425855      -0.50900615   
   5515000   0.45057457     3.3794695     -0.51847804   
   5516000   0.45490365     3.4443223     -0.54444647   
   5517000   0.44640986     3.4132343     -0.50043913   
   5518000   0.44551803     3.4362956     -0.47389725   
   5519000   0.45170909     3.447598      -0.45338424   
   5520000   0.45188873     3.3712243     -0.45038707   
   5521000   0.45210021     3.3977297     -0.39653951   
   5522000   0.44795721     3.4099237     -0.38442856   
   5523000   0.45289514     3.4187444     -0.45854496   
   5524000   0.4499102      3.347632      -0.40316701   
   5525000   0.44888075     3.4085608     -0.44361971   
   5526000   0.45330644     3.3773552     -0.40957301   
   5527000   0.44982229     3.400895      -0.48145556   
   5528000   0.44993617     3.4048143     -0.37457189   
   5529000   0.45193159     3.4368725     -0.44454519   
   5530000   0.44800976     3.3650716     -0.45802736   
   5531000   0.45394236     3.4579657     -0.5243575    
   5532000   0.44812698     3.3609574     -0.42685019   
   5533000   0.45385548     3.39879       -0.5233167    
   5534000   0.4479902      3.4399137     -0.48737226   
   5535000   0.4486273      3.3854696     -0.47380621   
   5536000   0.44994845     3.4377522     -0.50419096   
   5537000   0.44857264     3.4532439     -0.45124175   
   5538000   0.44768379     3.4232626     -0.52688242   
   5539000   0.45234274     3.4017563     -0.49867914   
   5540000   0.45171108     3.3445458     -0.45745798   
   5541000   0.45148757     3.4332379     -0.48300422   
   5542000   0.44983068     3.3766238     -0.52418111   
   5543000   0.45396684     3.3627805     -0.52081602   
   5544000   0.45449477     3.4308229     -0.41447524   
   5545000   0.44771009     3.3889688     -0.52413706   
   5546000   0.44593176     3.4508156     -0.45744949   
   5547000   0.45019389     3.4026141     -0.50333101   
   5548000   0.4503099      3.3882236     -0.52125641   
   5549000   0.45333961     3.4578235     -0.56469097   
   5550000   0.44716787     3.4329516     -0.52944323   
   5551000   0.45437774     3.4172643     -0.45635614   
   5552000   0.45316411     3.4279469     -0.48920877   
   5553000   0.4494263      3.4275311     -0.44553586   
   5554000   0.447153       3.3749748     -0.51598878   
   5555000   0.44604841     3.4761883     -0.43259113   
   5555556   0.45325488     3.4394493     -0.49738575   
Loop time of 14170.6 on 22 procs for 5555556 steps with 16500 atoms

Performance: 101619.047 tau/day, 392.049 timesteps/s, 6.469 Matom-step/s
94.0% CPU use with 22 MPI tasks x 1 OpenMP threads

MPI task timing breakdown:
Section |  min time  |  avg time  |  max time  |%varavg| %total
---------------------------------------------------------------
Pair    | 6144.3     | 6264.7     | 6409.7     |  95.8 | 44.21
Neigh   | 2261.2     | 2291.7     | 2319.6     |  29.5 | 16.17
Comm    | 3557.1     | 3695.2     | 3889.4     | 146.1 | 26.08
Output  | 17.964     | 26.137     | 34.21      |  95.1 |  0.18
Modify  | 1533.8     | 1591       | 1664.9     | 104.8 | 11.23
Other   |            | 301.8      |            |       |  2.13

Nlocal:            750 ave         767 max         724 min
Histogram: 1 0 1 2 4 2 4 1 3 4
Nghost:        4103.95 ave        4163 max        4045 min
Histogram: 2 0 3 1 6 2 3 2 2 1
Neighs:        41249.1 ave       42443 max       39277 min
Histogram: 1 0 0 2 3 6 2 0 5 3

Total # of neighbors = 907480
Ave neighs/atom = 54.998788
Neighbor list builds = 341843
Dangerous builds = 0

print "Shear run complete: gamma_dot = ${SHEAR_RATE}"
Shear run complete: gamma_dot = 0.003
Total wall time: 5:14:57
