LAMMPS (10 Dec 2025)
OMP_NUM_THREADS environment is not set. Defaulting to 1 thread.
  using 1 OpenMP thread(s) per MPI task
Loaded 1 plugins from C:\Users\fangy\AppData\Local\LAMMPS 64-bit 10Dec2025-MSMPI\plugins
# ===========================================================================
# LAMMPS Input Script: SLLOD Shear Production Run (Template)
# Reference: Zeng et al., J. Chem. Phys. 163, 084512 (2025)
#
# Usage (example):
#   mpirun -np 4 lmp -in in.shear_template \
#       -var SHEAR_RATE 0.01 -var DT 0.003 -var SEED 12345 \
#       -log log.shear_0.01
#
# Required command-line variables:
#   SHEAR_RATE  : shear rate (LJ units, tau_0^{-1})
#   DT          : timestep  (0.003 for gamma_dot <= 0.01; 0.001 otherwise)
#   SEED        : random seed (reserved; not used in current version)
#
# SLLOD physics summary:
#   - Lees-Edwards BC: periodic box sheared in xy plane
#     (flow x, gradient y, vorticity z)
#   - fix deform:     d(xy)/dt = gamma_dot * Ly  (remap v required)
#   - fix nvt/sllod:  SLLOD EOM + Nose-Hoover thermostat in peculiar frame
#   - Viscosity:      eta = -<P_xy> / gamma_dot
#     (P_xy in LAMMPS = full stress, positive in compression sign convention;
#      for shear flow: P_xy = sigma_xy = -eta * gamma_dot, so eta = -P_xy/gamma_dot)
#
# Protocol:
#   Pre-run:    accumulated strain Delta_gamma = 20  (reach steady state)
#   Production: accumulated strain Delta_gamma = 50  (data collection)
#
# Output files (written to working directory, moved by bash script):
#   dump.shear_${SHEAR_RATE}.lammpstrj  : atom trajectories every 0.5/gamma_dot
#   thermo.shear_${SHEAR_RATE}.dat      : P_xy time series every 100 steps
#   visc_blockave.shear_${SHEAR_RATE}.dat : block-averaged -<P_xy>
# ===========================================================================

# ===========================
# BASIC SETUP
# ===========================
units       lj
atom_style  atomic

# ===========================
# READ EQUILIBRATED CONFIG
# ===========================
# Restores: positions, velocities, masses, box geometry,
#           pair_style and pair_coeff from the equilibration run.
read_restart  restart.equil
Reading restart file ...
  restart file = 7 Feb 2024, LAMMPS = 10 Dec 2025
WARNING: Restart file used different # of processors: 6 vs. 22 (src/read_restart.cpp:630)
  restoring atom style atomic from restart
  orthogonal box = (0 0 0) to (23.957099 23.957099 23.957099)
  1 by 2 by 11 MPI processor grid
  restoring pair style lj/cut from restart
  16500 atoms
  read_restart CPU = 0.011 seconds

# Re-specify pair potential explicitly (defensive: ensures correct parameters
# even if restart was written with a different LAMMPS version).
pair_style  lj/cut  2.5
pair_coeff  1 1  1.0   1.0   2.5
pair_coeff  1 2  1.5   0.8   2.5
pair_coeff  2 2  0.5   0.88  2.5
pair_modify  shift  yes

# Rebuild neighbor list from scratch (box geometry may change below)
neighbor      0.3  bin
neigh_modify  every 1  delay 0  check yes

# ===========================
# DERIVED PARAMETERS
# ===========================
# Thermostat damping = 100 * dt
# (100 steps per oscillation period; standard Nose-Hoover choice)
variable  DAMP        equal  100.0*${DT}
variable  DAMP        equal  100.0*0.001

# Target temperature
variable  TEMP        equal  0.45

# Pre-run steps: strain = gamma_dot * t = gamma_dot * (N_steps * dt) = 20
# => N_pre = round(20 / (gamma_dot * dt))
variable  N_pre       equal  round(20.0/(${SHEAR_RATE}*${DT}))
variable  N_pre       equal  round(20.0/(0.015*${DT}))
variable  N_pre       equal  round(20.0/(0.015*0.001))

# Production steps: strain = 50
# => N_prod = round(50 / (gamma_dot * dt))
variable  N_prod      equal  round(50.0/(${SHEAR_RATE}*${DT}))
variable  N_prod      equal  round(50.0/(0.015*${DT}))
variable  N_prod      equal  round(50.0/(0.015*0.001))

# Dump interval: Delta_t_dump = 0.5 / gamma_dot time units
# => dump_every = round(0.5 / (gamma_dot * dt)) steps
# This gives ~100 trajectory frames per strain unit (sufficient for cage jump analysis)
variable  DUMP_EVERY  equal  round(0.02/(${SHEAR_RATE}*${DT}))
variable  DUMP_EVERY  equal  round(0.02/(0.015*${DT}))
variable  DUMP_EVERY  equal  round(0.02/(0.015*0.001))

# ===========================
# CONVERT BOX TO TRICLINIC
# ===========================
# The equilibrated restart has an orthogonal box.
# fix deform with 'xy erate' requires a triclinic box to store the xy tilt.
# change_box converts orthogonal -> triclinic without moving atoms.
change_box  all  triclinic
Changing box ...
  triclinic box = (0 0 0) to (23.957099 23.957099 23.957099) with tilt (0 0 0)

# ===========================
# TIMESTEP
# ===========================
timestep  ${DT}
timestep  0.001

# ===========================
# SLLOD SHEAR FIXES
# ===========================

# --- fix deform: apply Lees-Edwards boundary condition ---
# 'xy erate ${SHEAR_RATE}' ramps the xy tilt angle at rate gamma_dot,
# producing a linear shear flow vx = gamma_dot * y.
#
# 'remap v' is REQUIRED when using fix nvt/sllod:
#   When an atom crosses the y boundary, its vx is adjusted by +/- gamma_dot*Ly
#   to maintain a smooth velocity profile across the periodic boundary.
#   fix nvt/sllod uses this to compute the streaming velocity for thermostatting.
#
# 'flip yes' (default): when |xy| > Lx/2, the box is flipped to an equivalent
#   periodic image, preventing the box from becoming arbitrarily skewed.
#   This is the standard Lees-Edwards treatment for long runs.
#
fix  shear_deform  all  deform  1  xy  erate  ${SHEAR_RATE}  remap  v  flip  yes
fix  shear_deform  all  deform  1  xy  erate  0.015  remap  v  flip  yes

# --- fix nvt/sllod: SLLOD equations of motion with Nose-Hoover thermostat ---
# Integrates: dp_i/dt = F_i - (dxz_dot)*p_yi*xhat - xi*p_i
# where dxz_dot = gamma_dot (velocity gradient).
# Internally creates compute temp/deform to compute temperature with
# streaming velocity subtracted.
# NOTE: this fix REQUIRES that fix deform uses 'remap v' (enforced by LAMMPS).
#
fix  sllod_nvt  all  nvt/sllod  temp  ${TEMP}  ${TEMP}  ${DAMP}
fix  sllod_nvt  all  nvt/sllod  temp  0.45  ${TEMP}  ${DAMP}
fix  sllod_nvt  all  nvt/sllod  temp  0.45  0.45  ${DAMP}
fix  sllod_nvt  all  nvt/sllod  temp  0.45  0.45  0.1

# --- Thermo quantities consistent with SLLOD (remove streaming velocity) ---
compute  Tdeform all temp/deform
compute  Pdeform all pressure Tdeform

thermo_modify  temp  Tdeform
thermo_modify  press Pdeform

# ===========================
# LOG THERMO (to log file)
# ===========================
thermo        1000
thermo_style  custom  step  c_Tdeform  c_Pdeform  c_Pdeform[4]
WARNING: New thermo_style command, previous thermo_modify settings will be lost (src/output.cpp:1100)
thermo_modify  flush  yes

# ===========================
# PRE-RUN: REACH STEADY STATE (Delta_gamma = 20)
# ===========================
# No file output during pre-run to avoid polluting data files with transients.
# Low shear rates (e.g., 0.001) require N_pre = 6,666,667 steps — be patient.
print "=========================================="
==========================================
print "PRE-RUN"
PRE-RUN
print "  gamma_dot   = ${SHEAR_RATE}"
  gamma_dot   = 0.015
print "  dt          = ${DT}"
  dt          = 0.001
print "  N_pre steps = ${N_pre}  (strain = 20)"
  N_pre steps = 1333333  (strain = 20)
print "=========================================="
==========================================
run  ${N_pre}
run  1333333
Generated 0 of 1 mixed pair_coeff terms from geometric mixing rule
Unused restart file peratom fix info:
  fix style: STORE/ATOM, fix ID: myMSD_COMPUTE_STORE
Neighbor list info ...
  update: every = 1 steps, delay = 0 steps, check = yes
  max neighbors/atom: 2000, page size: 100000
  master list distance cutoff = 2.8
  ghost atom cutoff = 2.8
  binsize = 1.4, bins = 18 18 18
  1 neighbor lists, perpetual/occasional/extra = 1 0 0
  (1) pair lj/cut, perpetual
      attributes: half, newton on
      pair build: half/bin/atomonly/newton/tri
      stencil: half/bin/3d/tri
      bin: standard
Per MPI rank memory allocation (min/avg/max) = 3.301 | 3.303 | 3.305 Mbytes
   Step       c_Tdeform      c_Pdeform     c_Pdeform[4] 
    651000   0.46311355     3.0596907     -0.027777618  
    652000   0.44755514     2.830184      -0.29243847   
    653000   0.45286809     2.9453917     -0.51981236   
    654000   0.45108294     2.9656136     -0.72206911   
    655000   0.44846901     2.9888016     -0.90945279   
    656000   0.44957214     3.0897569     -0.99868334   
    657000   0.45303118     3.1773745     -0.9994232    
    658000   0.44892203     3.2137055     -1.1554258    
    659000   0.45251277     3.3858783     -1.1945855    
    660000   0.44834603     3.4533642     -1.1595236    
    661000   0.44811262     3.4672904     -1.1640899    
    662000   0.44780693     3.5505564     -1.1144517    
    663000   0.44881747     3.5926952     -1.0555636    
    664000   0.44769829     3.5910843     -0.90900153   
    665000   0.44964501     3.6294686     -0.86360773   
    666000   0.45185055     3.6032698     -0.92103179   
    667000   0.44919705     3.6546139     -0.76790517   
    668000   0.45316242     3.7094832     -0.78236562   
    669000   0.4513989      3.6384186     -0.81709021   
    670000   0.44957769     3.6844933     -0.73227256   
    671000   0.45136499     3.7186431     -0.8395752    
    672000   0.450769       3.6667381     -0.80218101   
    673000   0.45145003     3.6584117     -0.83282698   
    674000   0.44783806     3.7103149     -0.83981597   
    675000   0.45276202     3.7449567     -0.8173644    
    676000   0.44638498     3.6583636     -0.80425504   
    677000   0.45072042     3.6933568     -0.77467699   
    678000   0.45155932     3.705989      -0.82142137   
    679000   0.44993894     3.7240705     -0.73169904   
    680000   0.45109848     3.6847619     -0.70472718   
    681000   0.4504108      3.7270483     -0.72730708   
    682000   0.45362509     3.6971753     -0.72071557   
    683000   0.45065131     3.7318166     -0.74474635   
    684000   0.45112665     3.6581537     -0.70793962   
    685000   0.44826654     3.7366679     -0.77363803   
    686000   0.45115905     3.695347      -0.71937456   
    687000   0.45531949     3.7360383     -0.66949349   
    688000   0.45081904     3.7463138     -0.6183933    
    689000   0.44431927     3.7084958     -0.63036248   
    690000   0.44988058     3.735416      -0.76735818   
    691000   0.44958085     3.7495164     -0.71945597   
    692000   0.45070378     3.7345576     -0.78730481   
    693000   0.4527255      3.7744736     -0.70091303   
    694000   0.45266694     3.7759618     -0.72164754   
    695000   0.44990876     3.7616935     -0.76156675   
    696000   0.44921326     3.7746709     -0.75996932   
    697000   0.45119372     3.7717373     -0.71936832   
    698000   0.4521016      3.7428011     -0.78657621   
    699000   0.45126914     3.7161298     -0.6970904    
    700000   0.45221856     3.7129827     -0.72017135   
    701000   0.449375       3.7241329     -0.69844781   
    702000   0.45141908     3.7242084     -0.72216814   
    703000   0.44554786     3.6956022     -0.73790889   
    704000   0.4481846      3.6297829     -0.72331552   
    705000   0.45054868     3.741204      -0.78978109   
    706000   0.4489878      3.7631593     -0.79559117   
    707000   0.45271322     3.716134      -0.78712811   
    708000   0.44699349     3.6957033     -0.76448096   
    709000   0.44913279     3.7366507     -0.72228138   
    710000   0.4488843      3.6904513     -0.76753577   
    711000   0.44763422     3.7657931     -0.7917603    
    712000   0.45299413     3.718622      -0.73603736   
    713000   0.45198183     3.7073803     -0.67252784   
    714000   0.45253575     3.7345073     -0.7558386    
    715000   0.44305703     3.6971559     -0.7489792    
    716000   0.45217041     3.7547158     -0.68379126   
    717000   0.45439733     3.7632136     -0.74133943   
    718000   0.44658565     3.702143      -0.74387739   
    719000   0.44925376     3.7412098     -0.78320513   
    720000   0.44777648     3.7395221     -0.77584584   
    721000   0.45018153     3.735718      -0.77738685   
    722000   0.44587163     3.7131172     -0.73979808   
    723000   0.45056232     3.7178666     -0.64367972   
    724000   0.45037483     3.7056161     -0.70584081   
    725000   0.44866362     3.7812543     -0.74915543   
    726000   0.44965166     3.7013915     -0.74963219   
    727000   0.45125067     3.7095804     -0.73359431   
    728000   0.45227788     3.7304133     -0.69395204   
    729000   0.45248238     3.7463725     -0.71788309   
    730000   0.45135792     3.7200892     -0.64742959   
    731000   0.45348671     3.7318424     -0.68683534   
    732000   0.44543516     3.6711268     -0.70705808   
    733000   0.45140829     3.7261641     -0.68000803   
    734000   0.4541003      3.7057054     -0.7359496    
    735000   0.44646324     3.6923088     -0.68216297   
    736000   0.44637761     3.703367      -0.75959415   
    737000   0.45319609     3.7617762     -0.69836705   
    738000   0.45468029     3.6751891     -0.67800656   
    739000   0.453603       3.7326138     -0.67238876   
    740000   0.45255107     3.7200013     -0.71474945   
    741000   0.45274189     3.7458762     -0.72255721   
    742000   0.45037897     3.7504779     -0.74046719   
    743000   0.44760782     3.7421993     -0.70498311   
    744000   0.45233117     3.7161142     -0.71341605   
    745000   0.45063756     3.7147069     -0.7154812    
    746000   0.44913833     3.7231079     -0.70450368   
    747000   0.44907071     3.7024726     -0.75553425   
    748000   0.44538973     3.7435122     -0.67206548   
    749000   0.44974107     3.7726245     -0.719972     
    750000   0.44495641     3.7225031     -0.66576494   
    751000   0.45299746     3.7614844     -0.71966271   
    752000   0.45564506     3.7255371     -0.71933578   
    753000   0.45155917     3.8106322     -0.72749591   
    754000   0.44875696     3.7404104     -0.75181368   
    755000   0.45496967     3.7882344     -0.73276176   
    756000   0.44799228     3.7655919     -0.75586299   
    757000   0.4495184      3.6925766     -0.74440513   
    758000   0.45205797     3.6992972     -0.74947748   
    759000   0.44444253     3.7407284     -0.7345223    
    760000   0.4513566      3.7545007     -0.78726804   
    761000   0.4517597      3.7232622     -0.72918163   
    762000   0.44992665     3.7376829     -0.7448064    
    763000   0.45273114     3.7847501     -0.67882297   
    764000   0.44685654     3.7388898     -0.76085084   
    765000   0.44644373     3.8037007     -0.79231597   
    766000   0.44780549     3.797944      -0.70732018   
    767000   0.45351977     3.7543367     -0.81351439   
    768000   0.45056836     3.728487      -0.76105116   
    769000   0.44819685     3.7672003     -0.72516845   
    770000   0.45076238     3.7142599     -0.62818949   
    771000   0.45312417     3.7402033     -0.69514488   
    772000   0.44991469     3.7689208     -0.76919748   
    773000   0.45259894     3.7553882     -0.81555362   
    774000   0.45276729     3.8064939     -0.74254969   
    775000   0.45036064     3.7658912     -0.8613371    
    776000   0.44755436     3.785972      -0.75555148   
    777000   0.45452266     3.8991568     -0.76278144   
    778000   0.45024421     3.8099185     -0.72607395   
    779000   0.44889955     3.7828338     -0.62571352   
    780000   0.45033532     3.7307194     -0.71137669   
    781000   0.44857237     3.7805418     -0.6553583    
    782000   0.4516078      3.7647441     -0.67626326   
    783000   0.45198252     3.7465767     -0.75250716   
    784000   0.45045718     3.6888216     -0.63469913   
    785000   0.44808648     3.7328612     -0.67538877   
    786000   0.44915603     3.7356955     -0.69450922   
    787000   0.44906358     3.7435618     -0.69563383   
    788000   0.44724308     3.7296949     -0.69690029   
    789000   0.45116547     3.7656118     -0.68382157   
    790000   0.44619033     3.737318      -0.65825589   
    791000   0.44939635     3.7572507     -0.64614091   
    792000   0.45177976     3.7750005     -0.69792307   
    793000   0.45067468     3.7692189     -0.72549285   
    794000   0.44834033     3.7276326     -0.65303826   
    795000   0.45348563     3.7665698     -0.74835118   
    796000   0.4501889      3.7708147     -0.68439592   
    797000   0.44649975     3.7508476     -0.65384854   
    798000   0.44641        3.7379368     -0.69450176   
    799000   0.45284255     3.7605902     -0.75183443   
    800000   0.45006994     3.7257239     -0.64979078   
    801000   0.45612334     3.7339235     -0.67080086   
    802000   0.44283512     3.7079964     -0.72804561   
    803000   0.45024364     3.780956      -0.82719446   
    804000   0.44279106     3.735446      -0.74433784   
    805000   0.45148061     3.7294335     -0.68898428   
    806000   0.44470993     3.7749589     -0.73047098   
    807000   0.45255961     3.7769033     -0.74263213   
    808000   0.44827035     3.6788039     -0.66069302   
    809000   0.44848045     3.779275      -0.71067014   
    810000   0.45101625     3.73152       -0.67240545   
    811000   0.45320403     3.6948761     -0.73041266   
    812000   0.45066413     3.7605694     -0.72962699   
    813000   0.4508709      3.7640822     -0.66140309   
    814000   0.45236361     3.7717868     -0.66354163   
    815000   0.45077873     3.7377639     -0.77833689   
    816000   0.45289859     3.719611      -0.66976814   
    817000   0.4533819      3.8024313     -0.76694097   
    818000   0.44571506     3.750176      -0.694136     
    819000   0.44925581     3.7774152     -0.79332382   
    820000   0.44768551     3.7787334     -0.81765462   
    821000   0.44930549     3.7551029     -0.72977813   
    822000   0.45105332     3.7789281     -0.7019634    
    823000   0.44824756     3.7421872     -0.73987678   
    824000   0.4457403      3.7914891     -0.71460946   
    825000   0.45438867     3.7803525     -0.67226262   
    826000   0.44723742     3.7557629     -0.67472188   
    827000   0.44746152     3.8011304     -0.61888138   
    828000   0.45087911     3.7449472     -0.72592541   
    829000   0.45116943     3.754989      -0.69401528   
    830000   0.44881414     3.7616961     -0.71003747   
    831000   0.44805558     3.8119107     -0.68947844   
    832000   0.4458418      3.7858741     -0.60933949   
    833000   0.45135255     3.7912883     -0.75674592   
    834000   0.44977338     3.8062788     -0.69714363   
    835000   0.45195671     3.7720853     -0.67625585   
    836000   0.44950219     3.8348029     -0.73170354   
    837000   0.44703253     3.7824151     -0.73454073   
    838000   0.45211898     3.771048      -0.73023773   
    839000   0.44760891     3.7382383     -0.71959595   
    840000   0.44603809     3.7509187     -0.84118888   
    841000   0.4510864      3.7633194     -0.79462858   
    842000   0.4494517      3.7559246     -0.76845104   
    843000   0.45344276     3.7788089     -0.66156353   
    844000   0.45149947     3.7624296     -0.6666755    
    845000   0.44471179     3.7522108     -0.68760391   
    846000   0.45055622     3.7798265     -0.78202019   
    847000   0.45043438     3.8176521     -0.74788806   
    848000   0.44701037     3.7460905     -0.80679691   
    849000   0.45526223     3.7821643     -0.77656962   
    850000   0.45707208     3.7220493     -0.72949016   
    851000   0.4529867      3.8049258     -0.76709186   
    852000   0.44777807     3.827444      -0.7606312    
    853000   0.44656484     3.7639281     -0.76452918   
    854000   0.45530019     3.7920299     -0.76077418   
    855000   0.45510631     3.7542049     -0.59974533   
    856000   0.45116569     3.7635269     -0.70778829   
    857000   0.44927144     3.7558809     -0.77465746   
    858000   0.45425379     3.7964344     -0.7377021    
    859000   0.44747294     3.7828263     -0.691692     
    860000   0.44927469     3.7794221     -0.79008094   
    861000   0.4473323      3.7833683     -0.7231916    
    862000   0.45161137     3.761358      -0.80248242   
    863000   0.44332296     3.806943      -0.76234205   
    864000   0.45142773     3.824237      -0.76016501   
    865000   0.44964787     3.7625909     -0.72114162   
    866000   0.44813522     3.7459176     -0.7658837    
    867000   0.44787972     3.7483801     -0.69347599   
    868000   0.45117721     3.7712276     -0.73446642   
    869000   0.4479703      3.6812412     -0.71889017   
    870000   0.44886501     3.7483681     -0.76929309   
    871000   0.45242207     3.7513944     -0.69682154   
    872000   0.4526726      3.7571322     -0.5967109    
    873000   0.44916123     3.7691114     -0.6848698    
    874000   0.45284637     3.7935007     -0.66572109   
    875000   0.44527256     3.7224796     -0.7239393    
    876000   0.45539149     3.7983245     -0.67114387   
    877000   0.44367785     3.7648744     -0.7001922    
    878000   0.45178989     3.7565673     -0.63517849   
    879000   0.45073632     3.7446309     -0.66714789   
    880000   0.44854237     3.7201546     -0.63772329   
    881000   0.4507491      3.74357       -0.72883171   
    882000   0.45100983     3.7109379     -0.73087261   
    883000   0.44842328     3.735769      -0.81391373   
    884000   0.4525679      3.8111104     -0.77211322   
    885000   0.45162186     3.8079825     -0.80227578   
    886000   0.45089969     3.7968573     -0.7865475    
    887000   0.44717738     3.8112406     -0.7686409    
    888000   0.45063427     3.8228321     -0.71758943   
    889000   0.44905282     3.821842      -0.76840297   
    890000   0.45150889     3.7671129     -0.68391284   
    891000   0.45007264     3.7348495     -0.69364638   
    892000   0.45243447     3.7859808     -0.6671705    
    893000   0.45041359     3.7422325     -0.65008661   
    894000   0.44828044     3.7499543     -0.70652657   
    895000   0.45334238     3.7689944     -0.704476     
    896000   0.45184225     3.7644124     -0.75695885   
    897000   0.44996162     3.7369424     -0.76928763   
    898000   0.44914962     3.7171232     -0.72671134   
    899000   0.4454216      3.763757      -0.74521917   
    900000   0.44923352     3.7951896     -0.72301335   
    901000   0.44329083     3.7590241     -0.73448505   
    902000   0.44996411     3.7931006     -0.68873978   
    903000   0.44764966     3.763942      -0.68302543   
    904000   0.450702       3.846406      -0.71828895   
    905000   0.44729205     3.7546468     -0.6589138    
    906000   0.45038443     3.8079052     -0.80573607   
    907000   0.44667097     3.7507647     -0.75502289   
    908000   0.45023232     3.8208001     -0.82069141   
    909000   0.45039384     3.7869272     -0.70204746   
    910000   0.4543502      3.7657317     -0.70418557   
    911000   0.44913215     3.8119494     -0.69980812   
    912000   0.45528164     3.7500199     -0.68718112   
    913000   0.44847998     3.7454691     -0.67795369   
    914000   0.44918252     3.7921537     -0.67704862   
    915000   0.44691023     3.7472046     -0.70916928   
    916000   0.44685811     3.8109085     -0.72809764   
    917000   0.44466214     3.7379412     -0.69440341   
    918000   0.44977558     3.7492808     -0.73949376   
    919000   0.44772949     3.7306528     -0.72457292   
    920000   0.44692497     3.7774475     -0.79106375   
    921000   0.4467538      3.6936132     -0.76608724   
    922000   0.44999431     3.8039281     -0.73628724   
    923000   0.44928715     3.8062328     -0.69173329   
    924000   0.44951907     3.789767      -0.68841108   
    925000   0.44615569     3.7511431     -0.74552627   
    926000   0.45315853     3.8160885     -0.71075422   
    927000   0.44929195     3.789901      -0.74006749   
    928000   0.44681222     3.7768295     -0.7644374    
    929000   0.44953184     3.7980768     -0.73693548   
    930000   0.45072292     3.7943094     -0.71180999   
    931000   0.45284748     3.8587414     -0.70222283   
    932000   0.44629173     3.7233618     -0.68334507   
    933000   0.4484913      3.7430247     -0.62879606   
    934000   0.45062859     3.7579164     -0.59747065   
    935000   0.44888908     3.7411163     -0.70884122   
    936000   0.45221814     3.7861176     -0.77315787   
    937000   0.45544243     3.7091771     -0.7537303    
    938000   0.45473862     3.7607544     -0.72263246   
    939000   0.44718153     3.7505237     -0.75803512   
    940000   0.45085282     3.739769      -0.76741946   
    941000   0.45139683     3.7743707     -0.76944124   
    942000   0.45345193     3.8055327     -0.66587491   
    943000   0.4440303      3.7053952     -0.68537191   
    944000   0.45356715     3.8028797     -0.63335009   
    945000   0.44935493     3.7704994     -0.75220964   
    946000   0.44958804     3.8656211     -0.72698654   
    947000   0.44916111     3.7393993     -0.6971986    
    948000   0.45146291     3.8020926     -0.78314343   
    949000   0.45213643     3.7476023     -0.75745059   
    950000   0.45044391     3.775307      -0.76038511   
    951000   0.4521976      3.7759091     -0.76564666   
    952000   0.44607762     3.7662016     -0.74728891   
    953000   0.45199916     3.8235097     -0.7186959    
    954000   0.44261807     3.744302      -0.68021559   
    955000   0.45373951     3.8033496     -0.67720443   
    956000   0.4455254      3.7199421     -0.70299183   
    957000   0.45156737     3.7691864     -0.66044768   
    958000   0.45080811     3.7463042     -0.71394425   
    959000   0.44946922     3.8001517     -0.68035857   
    960000   0.44749245     3.7919291     -0.76072487   
    961000   0.45405865     3.7023358     -0.77901985   
    962000   0.44477222     3.7996012     -0.78290832   
    963000   0.44946798     3.8342127     -0.83388166   
    964000   0.44808972     3.770995      -0.7386968    
    965000   0.45411465     3.8167245     -0.76790746   
    966000   0.44878259     3.7803458     -0.75426385   
    967000   0.44921115     3.7415813     -0.70900401   
    968000   0.4472696      3.8015437     -0.65710401   
    969000   0.45290027     3.7564308     -0.71001102   
    970000   0.45051031     3.7291324     -0.65777539   
    971000   0.45332372     3.7351854     -0.61805343   
    972000   0.45135837     3.7430213     -0.67617233   
    973000   0.44637639     3.7914653     -0.71428774   
    974000   0.44605098     3.7052589     -0.74087959   
    975000   0.44729308     3.6856247     -0.79262155   
    976000   0.44623691     3.7452261     -0.74503163   
    977000   0.4537905      3.737521      -0.73004467   
    978000   0.45500962     3.7207473     -0.70506808   
    979000   0.44607892     3.7348262     -0.69349716   
    980000   0.45234076     3.7777451     -0.77181352   
    981000   0.44698346     3.7621918     -0.71495228   
    982000   0.45145994     3.8008244     -0.7863549    
    983000   0.44432769     3.7955994     -0.73947953   
    984000   0.44712598     3.7784573     -0.7583286    
    985000   0.44851784     3.8118898     -0.72817539   
    986000   0.44745228     3.7411143     -0.6430172    
    987000   0.45310216     3.7792386     -0.73465255   
    988000   0.44494127     3.722903      -0.74384683   
    989000   0.4515733      3.8714913     -0.70969645   
    990000   0.44800532     3.7172772     -0.80377933   
    991000   0.45187643     3.7873028     -0.74045601   
    992000   0.45107917     3.8119988     -0.6813213    
    993000   0.44896484     3.7820256     -0.6799344    
    994000   0.45492606     3.7902843     -0.70080528   
    995000   0.45194393     3.7990956     -0.64591811   
    996000   0.45651824     3.7138469     -0.74393707   
    997000   0.44717918     3.7871925     -0.66439937   
    998000   0.45228014     3.7280907     -0.65340609   
    999000   0.45294402     3.7359208     -0.62653662   
   1000000   0.45481194     3.7297633     -0.7593819    
   1001000   0.45265391     3.7278357     -0.68647785   
   1002000   0.45394585     3.7483675     -0.76705737   
   1003000   0.45206736     3.7508511     -0.68803427   
   1004000   0.44748506     3.7391095     -0.7090783    
   1005000   0.44757353     3.7399264     -0.71494538   
   1006000   0.44418468     3.7875678     -0.79705066   
   1007000   0.45506953     3.7869721     -0.71215571   
   1008000   0.45108941     3.7657646     -0.68159591   
   1009000   0.44475707     3.7356127     -0.70241493   
   1010000   0.45429489     3.8108678     -0.68290887   
   1011000   0.44732705     3.7098146     -0.69015835   
   1012000   0.45598795     3.7547624     -0.71641738   
   1013000   0.44768997     3.7689675     -0.6670155    
   1014000   0.45344162     3.7085694     -0.6906864    
   1015000   0.44934536     3.7611067     -0.7210322    
   1016000   0.4489407      3.7365899     -0.77027291   
   1017000   0.44921833     3.7722831     -0.65715019   
   1018000   0.44722874     3.7720649     -0.74015116   
   1019000   0.45074523     3.7400499     -0.7056448    
   1020000   0.44875522     3.8323793     -0.72877862   
   1021000   0.45176681     3.7227635     -0.75732346   
   1022000   0.44930439     3.7574274     -0.69440105   
   1023000   0.4527823      3.7863924     -0.70778003   
   1024000   0.44838814     3.7767909     -0.72073334   
   1025000   0.45289806     3.7934662     -0.73378023   
   1026000   0.45460573     3.7370946     -0.70054864   
   1027000   0.44680027     3.779058      -0.69439166   
   1028000   0.45064308     3.8061903     -0.74184173   
   1029000   0.45173411     3.7780668     -0.75696773   
   1030000   0.44936478     3.7506435     -0.719922     
   1031000   0.45522503     3.7767558     -0.76341944   
   1032000   0.44594543     3.7779391     -0.67930675   
   1033000   0.45207236     3.8164734     -0.69085238   
   1034000   0.45143001     3.7358624     -0.68488054   
   1035000   0.44925018     3.8217152     -0.70097991   
   1036000   0.45129728     3.7917465     -0.72072931   
   1037000   0.44674864     3.7968235     -0.69293279   
   1038000   0.44789721     3.8128121     -0.70141688   
   1039000   0.44886731     3.7878345     -0.76502018   
   1040000   0.45400429     3.8012545     -0.76841933   
   1041000   0.44916932     3.8628057     -0.68935036   
   1042000   0.45034174     3.7471112     -0.74772026   
   1043000   0.44622788     3.8093428     -0.82010386   
   1044000   0.44418746     3.7746086     -0.80625003   
   1045000   0.44915468     3.7532555     -0.73545507   
   1046000   0.44719897     3.8697852     -0.69996277   
   1047000   0.44486936     3.7796551     -0.72275688   
   1048000   0.45006257     3.8358163     -0.76107562   
   1049000   0.45158882     3.8098624     -0.80139979   
   1050000   0.45157164     3.8412799     -0.64865394   
   1051000   0.45037561     3.8147247     -0.68921261   
   1052000   0.45083581     3.84968       -0.73254391   
   1053000   0.45205578     3.8105348     -0.72396905   
   1054000   0.44922447     3.8165843     -0.71637753   
   1055000   0.44728781     3.8862825     -0.71061012   
   1056000   0.45188772     3.7747923     -0.7454999    
   1057000   0.45329198     3.7662983     -0.62963549   
   1058000   0.44774132     3.7794197     -0.66188129   
   1059000   0.44636993     3.7717459     -0.60045604   
   1060000   0.45108448     3.7783926     -0.75614904   
   1061000   0.44979558     3.7797203     -0.63043305   
   1062000   0.44771183     3.7678758     -0.64149751   
   1063000   0.44863868     3.7538548     -0.647206     
   1064000   0.45419574     3.7915084     -0.61161983   
   1065000   0.45169229     3.757011      -0.69257521   
   1066000   0.44940671     3.7403648     -0.72538383   
   1067000   0.45284984     3.7638655     -0.7009599    
   1068000   0.45013831     3.7732963     -0.70269154   
   1069000   0.4516187      3.7810828     -0.68447712   
   1070000   0.44557272     3.7806575     -0.66488848   
   1071000   0.45800431     3.6937642     -0.7187973    
   1072000   0.45257783     3.7878323     -0.77448405   
   1073000   0.4520598      3.7251616     -0.71722216   
   1074000   0.44932354     3.7794417     -0.72452304   
   1075000   0.45331972     3.7897817     -0.83732338   
   1076000   0.44337699     3.7613722     -0.71121058   
   1077000   0.45181501     3.7862668     -0.71545931   
   1078000   0.44964053     3.7445928     -0.75435193   
   1079000   0.4508224      3.7963873     -0.73193385   
   1080000   0.45147369     3.7774159     -0.72980992   
   1081000   0.44875104     3.7830839     -0.79437771   
   1082000   0.44818474     3.7730575     -0.77192828   
   1083000   0.44610544     3.7917503     -0.74990797   
   1084000   0.45262599     3.8022444     -0.74671891   
   1085000   0.44934512     3.8265186     -0.78272556   
   1086000   0.44831635     3.7565703     -0.75533886   
   1087000   0.45035813     3.821797      -0.72342783   
   1088000   0.44919319     3.7768613     -0.70666163   
   1089000   0.44994607     3.7457976     -0.80073112   
   1090000   0.44836513     3.8131523     -0.69611803   
   1091000   0.45209849     3.8305208     -0.80481183   
   1092000   0.44542886     3.7391303     -0.68130615   
   1093000   0.45340848     3.7844473     -0.68692483   
   1094000   0.45006277     3.7810555     -0.71497068   
   1095000   0.44800672     3.7559232     -0.71268419   
   1096000   0.45001127     3.8224226     -0.71651804   
   1097000   0.45483548     3.794956      -0.71013113   
   1098000   0.44630338     3.7761931     -0.69410675   
   1099000   0.45327075     3.8845751     -0.66589572   
   1100000   0.45161875     3.7598742     -0.70054749   
   1101000   0.45041199     3.812106      -0.68233323   
   1102000   0.44774057     3.8213956     -0.71536298   
   1103000   0.44977113     3.7908329     -0.76062069   
   1104000   0.45198336     3.7412286     -0.68305123   
   1105000   0.450134       3.8008673     -0.70207165   
   1106000   0.45079268     3.7083358     -0.69856524   
   1107000   0.45281347     3.7372987     -0.66732698   
   1108000   0.4508136      3.7692783     -0.65616253   
   1109000   0.45068618     3.7376091     -0.73865934   
   1110000   0.4518814      3.8051099     -0.77334223   
   1111000   0.44737111     3.780986      -0.84485103   
   1112000   0.44495056     3.7860856     -0.79349117   
   1113000   0.44877391     3.7839394     -0.7249802    
   1114000   0.45231937     3.8065212     -0.78007162   
   1115000   0.44637359     3.8526168     -0.69790801   
   1116000   0.44588006     3.6994796     -0.71219029   
   1117000   0.45020344     3.8262195     -0.709493     
   1118000   0.45096678     3.7505783     -0.67869957   
   1119000   0.45145563     3.8061621     -0.59020925   
   1120000   0.44905934     3.7853973     -0.68673736   
   1121000   0.45776539     3.8001914     -0.69451135   
   1122000   0.44352134     3.76383       -0.75349422   
   1123000   0.45108205     3.8355757     -0.75843632   
   1124000   0.44695255     3.8243017     -0.6967404    
   1125000   0.44724344     3.7568298     -0.74052396   
   1126000   0.45126125     3.8270203     -0.72267477   
   1127000   0.44929309     3.7773392     -0.77224481   
   1128000   0.44182034     3.7863926     -0.72441416   
   1129000   0.45346347     3.7798715     -0.73984117   
   1130000   0.45345663     3.8006251     -0.69306619   
   1131000   0.45462402     3.7777488     -0.74339209   
   1132000   0.4506792      3.7906317     -0.78373664   
   1133000   0.4536986      3.7813946     -0.74768509   
   1134000   0.45057427     3.7827496     -0.6699021    
   1135000   0.45097269     3.7541143     -0.73812288   
   1136000   0.44916937     3.7903179     -0.78035817   
   1137000   0.45305045     3.8073369     -0.70186551   
   1138000   0.44838458     3.7666533     -0.7535269    
   1139000   0.45208528     3.7867751     -0.69143213   
   1140000   0.44935765     3.780728      -0.75554041   
   1141000   0.45146613     3.7929829     -0.78504598   
   1142000   0.44962624     3.802278      -0.63076865   
   1143000   0.44805436     3.7374197     -0.68891203   
   1144000   0.45386144     3.7597648     -0.60621165   
   1145000   0.44729581     3.7742373     -0.7294284    
   1146000   0.44928344     3.8082411     -0.77573964   
   1147000   0.44175365     3.7527239     -0.7566311    
   1148000   0.45047902     3.8069882     -0.76240046   
   1149000   0.44529599     3.750069      -0.74855555   
   1150000   0.44801378     3.7833856     -0.80128664   
   1151000   0.44890871     3.789903      -0.74493785   
   1152000   0.45539361     3.7206232     -0.84016447   
   1153000   0.45438739     3.7688883     -0.66696137   
   1154000   0.45173276     3.7663593     -0.71767281   
   1155000   0.44886469     3.7541572     -0.79877414   
   1156000   0.44779781     3.7947931     -0.71397549   
   1157000   0.44856551     3.8155514     -0.77440468   
   1158000   0.44647412     3.7881921     -0.71486194   
   1159000   0.45437769     3.729481      -0.74913945   
   1160000   0.44754843     3.7953386     -0.84519172   
   1161000   0.44943849     3.7722355     -0.7359458    
   1162000   0.45373837     3.7893288     -0.68599749   
   1163000   0.45080683     3.7483204     -0.65901577   
   1164000   0.45282871     3.7502244     -0.72808722   
   1165000   0.44984957     3.7746299     -0.71454946   
   1166000   0.45129443     3.8232037     -0.75717463   
   1167000   0.44686771     3.7708873     -0.70945411   
   1168000   0.45295881     3.7734983     -0.69032068   
   1169000   0.44600137     3.7482875     -0.68716186   
   1170000   0.45050421     3.7533577     -0.80715104   
   1171000   0.44911906     3.7436663     -0.61626415   
   1172000   0.44774949     3.7780561     -0.65772959   
   1173000   0.45244278     3.7271494     -0.68674084   
   1174000   0.44892565     3.7603274     -0.68795746   
   1175000   0.4482221      3.7545047     -0.67006704   
   1176000   0.44919744     3.790903      -0.72415007   
   1177000   0.44919881     3.7187625     -0.68499077   
   1178000   0.44861639     3.6946304     -0.71172407   
   1179000   0.45011448     3.7697387     -0.68732026   
   1180000   0.44882206     3.7411249     -0.6870991    
   1181000   0.44679941     3.7682218     -0.71711629   
   1182000   0.44959992     3.7809872     -0.72254367   
   1183000   0.44943803     3.7818162     -0.75798502   
   1184000   0.44943772     3.8030768     -0.61850945   
   1185000   0.44454787     3.7783072     -0.7075018    
   1186000   0.4446335      3.7700235     -0.75092535   
   1187000   0.45390958     3.8059624     -0.75429885   
   1188000   0.45332779     3.7296747     -0.73997398   
   1189000   0.45507355     3.7936087     -0.67180885   
   1190000   0.45201448     3.7277035     -0.76451662   
   1191000   0.44743969     3.7770721     -0.7049603    
   1192000   0.45337662     3.8282653     -0.72534863   
   1193000   0.45114277     3.7662883     -0.78851027   
   1194000   0.44543811     3.7651767     -0.71097319   
   1195000   0.44830317     3.7964006     -0.76532704   
   1196000   0.44885765     3.8222973     -0.74591958   
   1197000   0.45303661     3.8335363     -0.80198558   
   1198000   0.45051981     3.7948849     -0.71716041   
   1199000   0.45245047     3.7959956     -0.74160567   
   1200000   0.45125272     3.743363      -0.76059394   
   1201000   0.4509986      3.8075302     -0.73389442   
   1202000   0.45387457     3.8121282     -0.79469535   
   1203000   0.44985881     3.8283907     -0.85407556   
   1204000   0.44878243     3.7862868     -0.78840686   
   1205000   0.4469449      3.8230903     -0.74208242   
   1206000   0.45669277     3.799158      -0.70065467   
   1207000   0.44791474     3.7790143     -0.65455055   
   1208000   0.45151629     3.7711454     -0.62338143   
   1209000   0.44843457     3.7824896     -0.66435436   
   1210000   0.45410658     3.7817761     -0.7104365    
   1211000   0.44906128     3.7570972     -0.70574956   
   1212000   0.44590808     3.7738846     -0.77334598   
   1213000   0.45571443     3.7858055     -0.70990609   
   1214000   0.44954869     3.8106864     -0.73401882   
   1215000   0.45152208     3.8290121     -0.78277016   
   1216000   0.44919201     3.7676494     -0.76988472   
   1217000   0.44793419     3.7740578     -0.6904077    
   1218000   0.4523545      3.7395025     -0.73362032   
   1219000   0.4493481      3.7552784     -0.73385618   
   1220000   0.45184697     3.7653607     -0.74125529   
   1221000   0.45172152     3.7549446     -0.74918696   
   1222000   0.4502652      3.7574676     -0.69987407   
   1223000   0.44859335     3.7945711     -0.6944278    
   1224000   0.44726348     3.7605774     -0.71787237   
   1225000   0.44834188     3.7904059     -0.70005133   
   1226000   0.45185424     3.794531      -0.69725298   
   1227000   0.44671954     3.7520742     -0.70135627   
   1228000   0.45101059     3.7568278     -0.72957867   
   1229000   0.44952381     3.7616235     -0.68024607   
   1230000   0.45010453     3.7648296     -0.69407872   
   1231000   0.44963263     3.7939098     -0.70586049   
   1232000   0.45319043     3.7452942     -0.72981428   
   1233000   0.45074835     3.7497068     -0.7521854    
   1234000   0.4491601      3.7895509     -0.69245041   
   1235000   0.44933572     3.7052297     -0.77109191   
   1236000   0.45161419     3.8072773     -0.72782882   
   1237000   0.44772206     3.6960461     -0.78415192   
   1238000   0.44502569     3.7681144     -0.72147104   
   1239000   0.45335952     3.7794907     -0.7571058    
   1240000   0.44567884     3.7652588     -0.73327645   
   1241000   0.45041971     3.7581809     -0.74282588   
   1242000   0.45541967     3.7586836     -0.76684084   
   1243000   0.45275016     3.7544007     -0.67061236   
   1244000   0.44892393     3.7392435     -0.76762766   
   1245000   0.44758505     3.7519182     -0.73588717   
   1246000   0.45635381     3.7871684     -0.72250725   
   1247000   0.44348353     3.7603547     -0.72130759   
   1248000   0.44979819     3.8199649     -0.70451645   
   1249000   0.44823138     3.8055521     -0.7214144    
   1250000   0.44921966     3.8176411     -0.69934183   
   1251000   0.44979474     3.7841045     -0.75889259   
   1252000   0.44697286     3.8153107     -0.83449341   
   1253000   0.44696093     3.7985059     -0.75124867   
   1254000   0.45196385     3.8199558     -0.71312748   
   1255000   0.45360219     3.766864      -0.71524388   
   1256000   0.44943523     3.795051      -0.74494612   
   1257000   0.44665032     3.7402937     -0.76500874   
   1258000   0.45535575     3.8479016     -0.69149488   
   1259000   0.45020587     3.7948782     -0.77124398   
   1260000   0.45157793     3.7695936     -0.69760583   
   1261000   0.44935746     3.8117934     -0.74351582   
   1262000   0.44998886     3.7888784     -0.72752849   
   1263000   0.45217239     3.8285456     -0.6971835    
   1264000   0.45169605     3.7994828     -0.73124508   
   1265000   0.45043011     3.7749056     -0.76703413   
   1266000   0.45303329     3.7708546     -0.73116872   
   1267000   0.45466867     3.8170646     -0.72461583   
   1268000   0.45070974     3.7719155     -0.64876113   
   1269000   0.44998732     3.7690468     -0.77735724   
   1270000   0.45036188     3.8413857     -0.74939049   
   1271000   0.44711341     3.8162873     -0.75714782   
   1272000   0.44769798     3.762827      -0.73526846   
   1273000   0.44985581     3.7988066     -0.73857632   
   1274000   0.45203232     3.797327      -0.68325608   
   1275000   0.45088012     3.8254966     -0.70180125   
   1276000   0.454886       3.7496595     -0.71823683   
   1277000   0.45143765     3.8228713     -0.73232246   
   1278000   0.44641247     3.7777054     -0.76836074   
   1279000   0.45359213     3.8283573     -0.80982323   
   1280000   0.44602998     3.8046759     -0.75338012   
   1281000   0.44805641     3.8246936     -0.66951002   
   1282000   0.44821019     3.7932356     -0.72449028   
   1283000   0.44863929     3.7729635     -0.70436457   
   1284000   0.44687514     3.8397483     -0.70528025   
   1285000   0.4471849      3.8172817     -0.78231959   
   1286000   0.44967934     3.7972971     -0.76676888   
   1287000   0.4539985      3.8422066     -0.71469213   
   1288000   0.44708472     3.8435661     -0.68361724   
   1289000   0.45497841     3.8404965     -0.6915973    
   1290000   0.45251038     3.7908297     -0.77941141   
   1291000   0.45215876     3.7742519     -0.7034004    
   1292000   0.44830667     3.808802      -0.74534616   
   1293000   0.45023393     3.77233       -0.69115529   
   1294000   0.45364025     3.8147451     -0.80944291   
   1295000   0.45252487     3.8031967     -0.80129812   
   1296000   0.44934229     3.8625258     -0.75795125   
   1297000   0.44452316     3.7442891     -0.74862545   
   1298000   0.45324747     3.8194448     -0.68730117   
   1299000   0.45088877     3.7716984     -0.76219608   
   1300000   0.44646885     3.7833761     -0.86485297   
   1301000   0.4495807      3.7986256     -0.75745651   
   1302000   0.44682303     3.7981873     -0.75372583   
   1303000   0.45075714     3.8101814     -0.77904214   
   1304000   0.44646679     3.8473183     -0.70641384   
   1305000   0.44919        3.8111988     -0.67589648   
   1306000   0.4526975      3.8557657     -0.79158353   
   1307000   0.44743058     3.8017584     -0.69080482   
   1308000   0.4537787      3.7980774     -0.6852794    
   1309000   0.4544318      3.8155967     -0.72254156   
   1310000   0.44967713     3.7688392     -0.6976433    
   1311000   0.45190674     3.8747037     -0.71753863   
   1312000   0.44570274     3.797021      -0.79236273   
   1313000   0.45198861     3.856052      -0.75399153   
   1314000   0.449476       3.828007      -0.70156805   
   1315000   0.44845744     3.7770776     -0.72850185   
   1316000   0.45422772     3.8378934     -0.73498145   
   1317000   0.45155292     3.738564      -0.66098646   
   1318000   0.44750546     3.741202      -0.64856415   
   1319000   0.45024064     3.8019469     -0.69062394   
   1320000   0.45043342     3.7821648     -0.65824074   
   1321000   0.44895947     3.7262114     -0.69363323   
   1322000   0.45394089     3.7568902     -0.69028426   
   1323000   0.45479598     3.7611604     -0.66046543   
   1324000   0.45017878     3.7801307     -0.71711565   
   1325000   0.44375447     3.7581442     -0.7396752    
   1326000   0.45411239     3.81541       -0.77845365   
   1327000   0.45067842     3.6939784     -0.73224325   
   1328000   0.45289945     3.8011924     -0.68185967   
   1329000   0.4510025      3.8204793     -0.7325899    
   1330000   0.44959389     3.7942723     -0.78855846   
   1331000   0.44718636     3.7793336     -0.71310621   
   1332000   0.44937018     3.8470082     -0.67925278   
   1333000   0.44475076     3.7945251     -0.7091046    
   1334000   0.44720021     3.8105996     -0.68445857   
   1335000   0.44993947     3.7808667     -0.68774228   
   1336000   0.4485865      3.798559      -0.7122159    
   1337000   0.44605411     3.7866043     -0.73788358   
   1338000   0.45034673     3.7866548     -0.7164564    
   1339000   0.44908262     3.7496399     -0.74446637   
   1340000   0.45148086     3.770646      -0.77220765   
   1341000   0.45139279     3.7897534     -0.80692415   
   1342000   0.44784542     3.8036334     -0.75834316   
   1343000   0.44805592     3.762272      -0.73142136   
   1344000   0.44864546     3.839542      -0.76105506   
   1345000   0.44893945     3.8194381     -0.79066433   
   1346000   0.45377019     3.8021369     -0.81142895   
   1347000   0.45137145     3.7616509     -0.72518119   
   1348000   0.45422253     3.8150581     -0.84870673   
   1349000   0.44966513     3.7999568     -0.71391231   
   1350000   0.45225317     3.8004846     -0.77337364   
   1351000   0.45487533     3.7684485     -0.6866381    
   1352000   0.45003481     3.7215239     -0.71020781   
   1353000   0.45007276     3.7996191     -0.68703917   
   1354000   0.45401458     3.8023759     -0.74630738   
   1355000   0.44526356     3.8076858     -0.68162783   
   1356000   0.45060304     3.7438409     -0.66787594   
   1357000   0.45030079     3.8161453     -0.61275933   
   1358000   0.44925207     3.7791682     -0.73653858   
   1359000   0.44391248     3.7508226     -0.66526207   
   1360000   0.45042454     3.7896394     -0.69162727   
   1361000   0.44605892     3.7132577     -0.71224952   
   1362000   0.45315584     3.7874046     -0.73558685   
   1363000   0.44932737     3.7171201     -0.76557276   
   1364000   0.44981271     3.7831243     -0.74090471   
   1365000   0.4472621      3.7686022     -0.78136838   
   1366000   0.44651589     3.7550821     -0.70716152   
   1367000   0.44409313     3.7217874     -0.68867925   
   1368000   0.4468913      3.7976862     -0.71637482   
   1369000   0.44800178     3.7612395     -0.75568034   
   1370000   0.44822781     3.7294422     -0.76888281   
   1371000   0.44985597     3.7322844     -0.82454646   
   1372000   0.44538025     3.759678      -0.76038665   
   1373000   0.4497292      3.8304819     -0.7461404    
   1374000   0.45406872     3.7979652     -0.76323074   
   1375000   0.44873658     3.7736772     -0.75887321   
   1376000   0.44986884     3.8595259     -0.79034023   
   1377000   0.45292277     3.6953362     -0.75433439   
   1378000   0.45226364     3.7604006     -0.6861177    
   1379000   0.45085694     3.7973288     -0.72398997   
   1380000   0.45372206     3.8045158     -0.68819699   
   1381000   0.44882643     3.7421887     -0.76040664   
   1382000   0.45537074     3.7597938     -0.77854965   
   1383000   0.44840368     3.7623188     -0.71501781   
   1384000   0.45242129     3.8077707     -0.76668529   
   1385000   0.45096418     3.769855      -0.79855115   
   1386000   0.45065342     3.8003183     -0.80180213   
   1387000   0.44464116     3.7758652     -0.70104331   
   1388000   0.44914763     3.831727      -0.7319901    
   1389000   0.45012477     3.7669703     -0.6404949    
   1390000   0.4505516      3.8048882     -0.69285579   
   1391000   0.44963761     3.7329436     -0.73727587   
   1392000   0.45219688     3.7988062     -0.66428991   
   1393000   0.44509617     3.7833841     -0.69553698   
   1394000   0.44937158     3.7833316     -0.70498007   
   1395000   0.44992404     3.7206508     -0.78383518   
   1396000   0.45137027     3.800544      -0.78032747   
   1397000   0.4496304      3.7678211     -0.72247921   
   1398000   0.45557003     3.8217726     -0.77779663   
   1399000   0.44831147     3.7906412     -0.76511675   
   1400000   0.45140277     3.7775778     -0.66814859   
   1401000   0.45198031     3.7590705     -0.69787079   
   1402000   0.44957972     3.7693948     -0.79033124   
   1403000   0.44891336     3.7705038     -0.72586938   
   1404000   0.44948461     3.7901333     -0.71756449   
   1405000   0.4535981      3.7466085     -0.6274085    
   1406000   0.44577539     3.7621244     -0.62079316   
   1407000   0.44971259     3.7445735     -0.67235397   
   1408000   0.45012013     3.7069055     -0.67253763   
   1409000   0.4516082      3.7560997     -0.71414928   
   1410000   0.44924987     3.7261419     -0.69316935   
   1411000   0.4539448      3.7218054     -0.71335762   
   1412000   0.45055014     3.8236691     -0.80253836   
   1413000   0.44876318     3.784365      -0.82148871   
   1414000   0.45237741     3.8085131     -0.80775043   
   1415000   0.44687183     3.8077158     -0.79690571   
   1416000   0.45003318     3.775531      -0.74601513   
   1417000   0.45192804     3.7576375     -0.80263618   
   1418000   0.45215963     3.7906882     -0.73488511   
   1419000   0.44974708     3.7988445     -0.75983875   
   1420000   0.4506536      3.8036517     -0.71890054   
   1421000   0.45237336     3.7575628     -0.79184745   
   1422000   0.44775755     3.7588989     -0.62220133   
   1423000   0.45284278     3.8042686     -0.7673099    
   1424000   0.45181943     3.7449493     -0.7397673    
   1425000   0.45242971     3.7547637     -0.72273111   
   1426000   0.44649072     3.7881447     -0.73941187   
   1427000   0.45138784     3.7754292     -0.72124504   
   1428000   0.44948891     3.7361678     -0.71645726   
   1429000   0.45135946     3.7777249     -0.75392323   
   1430000   0.4526126      3.7362858     -0.7041776    
   1431000   0.4519829      3.7944023     -0.73517793   
   1432000   0.4430483      3.7143784     -0.72336985   
   1433000   0.45909687     3.8133866     -0.71053771   
   1434000   0.44681016     3.7657084     -0.69214066   
   1435000   0.45262345     3.8374965     -0.71438602   
   1436000   0.45082447     3.7896761     -0.72663467   
   1437000   0.44719919     3.7701579     -0.73463923   
   1438000   0.44949915     3.817126      -0.72475926   
   1439000   0.44817936     3.7668369     -0.7712673    
   1440000   0.45004204     3.867286      -0.81199975   
   1441000   0.45090629     3.731521      -0.72916088   
   1442000   0.45355588     3.8680782     -0.77972542   
   1443000   0.44704205     3.7620022     -0.70506808   
   1444000   0.4505872      3.8139709     -0.68640511   
   1445000   0.44813348     3.7923206     -0.68384352   
   1446000   0.44906328     3.7672456     -0.68280313   
   1447000   0.4506872      3.824339      -0.81125869   
   1448000   0.45399435     3.7916317     -0.79030256   
   1449000   0.44947211     3.8180542     -0.81895579   
   1450000   0.4515754      3.8628192     -0.808842     
   1451000   0.44976706     3.7970802     -0.75249978   
   1452000   0.44864314     3.8106068     -0.69906621   
   1453000   0.45432154     3.7705143     -0.71851509   
   1454000   0.45095288     3.7769872     -0.77176807   
   1455000   0.45048859     3.8289169     -0.74254238   
   1456000   0.44623063     3.7639487     -0.77754578   
   1457000   0.45298603     3.8356975     -0.65302931   
   1458000   0.45014714     3.7389345     -0.6429574    
   1459000   0.44943323     3.766663      -0.67124836   
   1460000   0.44626701     3.736808      -0.74363154   
   1461000   0.4532141      3.7552972     -0.72248919   
   1462000   0.4518825      3.772832      -0.74639899   
   1463000   0.44717158     3.786707      -0.67532281   
   1464000   0.44916914     3.8063667     -0.69520959   
   1465000   0.44465954     3.8192031     -0.68891471   
   1466000   0.4477108      3.7831433     -0.63512686   
   1467000   0.45879686     3.7894161     -0.65965555   
   1468000   0.44561125     3.7561001     -0.66772197   
   1469000   0.44980381     3.7323759     -0.68028287   
   1470000   0.44857609     3.7725804     -0.72585046   
   1471000   0.44986702     3.7745388     -0.74618443   
   1472000   0.44904683     3.7674866     -0.66256102   
   1473000   0.4492778      3.7491119     -0.7200466    
   1474000   0.45499236     3.7792225     -0.7384446    
   1475000   0.44871312     3.754494      -0.73399774   
   1476000   0.45164066     3.83251       -0.7798287    
   1477000   0.44689943     3.7510145     -0.82052967   
   1478000   0.45240354     3.7852606     -0.76866964   
   1479000   0.45436255     3.6883718     -0.72400873   
   1480000   0.44954887     3.8069424     -0.78864396   
   1481000   0.45163793     3.7779097     -0.80771481   
   1482000   0.44770089     3.7752243     -0.79166551   
   1483000   0.44732535     3.8277038     -0.73551272   
   1484000   0.44906362     3.8035738     -0.71796025   
   1485000   0.44702522     3.803652      -0.80988536   
   1486000   0.45066423     3.8354682     -0.66609776   
   1487000   0.45081566     3.7532896     -0.7530788    
   1488000   0.45101091     3.7821086     -0.71176405   
   1489000   0.45101104     3.7819829     -0.70886556   
   1490000   0.45010215     3.7316897     -0.7583545    
   1491000   0.45229891     3.8106291     -0.74798734   
   1492000   0.44692696     3.7363454     -0.78099077   
   1493000   0.45228576     3.8300358     -0.71970369   
   1494000   0.44626607     3.7756014     -0.77368953   
   1495000   0.44755381     3.8018986     -0.76161943   
   1496000   0.45011213     3.8262763     -0.76467546   
   1497000   0.44875909     3.7573919     -0.7838666    
   1498000   0.45067041     3.81488       -0.72604186   
   1499000   0.45123456     3.7589873     -0.73595344   
   1500000   0.44841768     3.7291006     -0.66678365   
   1501000   0.45117537     3.822417      -0.67326175   
   1502000   0.44769591     3.7729198     -0.66050727   
   1503000   0.45202653     3.79222       -0.65906469   
   1504000   0.44884411     3.750635      -0.65515769   
   1505000   0.45407099     3.7551669     -0.67507944   
   1506000   0.45148086     3.7481029     -0.74486915   
   1507000   0.44811829     3.77979       -0.74531142   
   1508000   0.4492914      3.7383        -0.74788525   
   1509000   0.44544324     3.7990985     -0.70831771   
   1510000   0.44858184     3.7284109     -0.69897602   
   1511000   0.45307134     3.8014876     -0.65189047   
   1512000   0.45270232     3.767264      -0.73443932   
   1513000   0.44685011     3.7519267     -0.79711444   
   1514000   0.45437128     3.8441281     -0.68391271   
   1515000   0.44789859     3.6737461     -0.78574738   
   1516000   0.45029753     3.8194497     -0.62552255   
   1517000   0.45501975     3.7561847     -0.78897619   
   1518000   0.44848142     3.763463      -0.73091037   
   1519000   0.44798173     3.7496141     -0.77233065   
   1520000   0.44889789     3.7886278     -0.73728366   
   1521000   0.4495728      3.7545262     -0.76452524   
   1522000   0.44857965     3.7404304     -0.78350701   
   1523000   0.45244188     3.790357      -0.75526652   
   1524000   0.45084516     3.8059227     -0.70928327   
   1525000   0.45004096     3.765171      -0.70504021   
   1526000   0.45054685     3.8037441     -0.80169496   
   1527000   0.45501784     3.742102      -0.68427861   
   1528000   0.44939552     3.7614394     -0.70535793   
   1529000   0.45163539     3.792178      -0.75002117   
   1530000   0.45072759     3.7279086     -0.70869032   
   1531000   0.45472907     3.8192107     -0.75636734   
   1532000   0.44921586     3.7387151     -0.77987666   
   1533000   0.44960459     3.7344142     -0.74144346   
   1534000   0.44977008     3.7617032     -0.73969556   
   1535000   0.44903022     3.7643568     -0.78419587   
   1536000   0.45055518     3.7835164     -0.78533418   
   1537000   0.45088226     3.7340823     -0.81517276   
   1538000   0.45089395     3.7799853     -0.74226568   
   1539000   0.44819731     3.7871269     -0.74644078   
   1540000   0.4539242      3.8501552     -0.67185458   
   1541000   0.45001315     3.7991452     -0.73938569   
   1542000   0.44737184     3.7956533     -0.70425517   
   1543000   0.4502338      3.7565268     -0.73712954   
   1544000   0.45120016     3.7447939     -0.73656608   
   1545000   0.44660352     3.7978202     -0.72215704   
   1546000   0.45189834     3.769179      -0.63305643   
   1547000   0.44845274     3.7794681     -0.7599804    
   1548000   0.45303131     3.812424      -0.67876274   
   1549000   0.45595921     3.7910115     -0.74209947   
   1550000   0.4494094      3.8027908     -0.74941605   
   1551000   0.45493298     3.7998674     -0.71079032   
   1552000   0.44922072     3.7765742     -0.77878895   
   1553000   0.45187188     3.7613464     -0.74536283   
   1554000   0.44586042     3.802894      -0.7010064    
   1555000   0.4561164      3.771037      -0.73179951   
   1556000   0.44856431     3.7574109     -0.72129939   
   1557000   0.4486867      3.8033214     -0.87232813   
   1558000   0.45487199     3.7877639     -0.84197168   
   1559000   0.4451482      3.8016975     -0.76451081   
   1560000   0.45378073     3.8444167     -0.75803234   
   1561000   0.44797907     3.7563653     -0.78084288   
   1562000   0.45185158     3.8063999     -0.71962204   
   1563000   0.44816234     3.8259609     -0.71101084   
   1564000   0.45099591     3.7925661     -0.73383598   
   1565000   0.44605221     3.7878126     -0.68534992   
   1566000   0.44818226     3.808593      -0.72068209   
   1567000   0.44395192     3.7913236     -0.69384201   
   1568000   0.4575578      3.8281119     -0.71597718   
   1569000   0.4446234      3.7472508     -0.7213235    
   1570000   0.4562704      3.7953536     -0.73382525   
   1571000   0.44824855     3.7256261     -0.68326882   
   1572000   0.45483757     3.8173978     -0.70742942   
   1573000   0.44800671     3.7841455     -0.78117254   
   1574000   0.44909959     3.7336477     -0.72025403   
   1575000   0.45133078     3.7845119     -0.68996983   
   1576000   0.45036919     3.7483548     -0.73465931   
   1577000   0.45525744     3.7819681     -0.70839261   
   1578000   0.45194929     3.7627794     -0.68440911   
   1579000   0.4493341      3.7541225     -0.85186099   
   1580000   0.45276331     3.7832329     -0.75180826   
   1581000   0.44987465     3.7890991     -0.74081816   
   1582000   0.45051097     3.7318623     -0.77602518   
   1583000   0.45406748     3.7940226     -0.7768327    
   1584000   0.4482994      3.7653483     -0.7372437    
   1585000   0.45337762     3.7694226     -0.71916291   
   1586000   0.45117479     3.8130082     -0.72068371   
   1587000   0.44791524     3.7490147     -0.68816781   
   1588000   0.44840443     3.795303      -0.71049604   
   1589000   0.45110813     3.7706144     -0.69045103   
   1590000   0.45040173     3.7622915     -0.75912871   
   1591000   0.45137611     3.7677138     -0.73143077   
   1592000   0.45651782     3.7514389     -0.7664084    
   1593000   0.44837939     3.7494173     -0.65336678   
   1594000   0.45180068     3.7431493     -0.78999723   
   1595000   0.45334177     3.8226669     -0.82822747   
   1596000   0.4506822      3.7707534     -0.8491949    
   1597000   0.44398326     3.7428671     -0.7593265    
   1598000   0.4540318      3.790997      -0.70692368   
   1599000   0.45178561     3.7697429     -0.80146992   
   1600000   0.44990643     3.7456351     -0.77923832   
   1601000   0.44907432     3.7700279     -0.73992343   
   1602000   0.44545595     3.799667      -0.73311102   
   1603000   0.45301834     3.7621719     -0.68940901   
   1604000   0.45498425     3.8002364     -0.76838295   
   1605000   0.45178849     3.8120026     -0.70772183   
   1606000   0.45228078     3.7466991     -0.73827702   
   1607000   0.4525472      3.8153713     -0.71291497   
   1608000   0.44694793     3.762913      -0.73180054   
   1609000   0.44921913     3.8106733     -0.78344264   
   1610000   0.4439844      3.7352083     -0.71010253   
   1611000   0.4477887      3.7801025     -0.64684209   
   1612000   0.45027727     3.6664456     -0.69475286   
   1613000   0.45569644     3.7819847     -0.63338962   
   1614000   0.44973979     3.721788      -0.74251777   
   1615000   0.44843323     3.7044686     -0.75446359   
   1616000   0.45316155     3.7900833     -0.73671937   
   1617000   0.44637826     3.778826      -0.69486562   
   1618000   0.45582762     3.7576386     -0.68605877   
   1619000   0.45016716     3.7498204     -0.68605238   
   1620000   0.4538675      3.7882237     -0.68650714   
   1621000   0.45206121     3.7704664     -0.80325252   
   1622000   0.45167035     3.777988      -0.8156581    
   1623000   0.45489192     3.812863      -0.71870336   
   1624000   0.44618743     3.7241665     -0.6985598    
   1625000   0.44820637     3.747074      -0.72279087   
   1626000   0.4497945      3.7721166     -0.67799463   
   1627000   0.44911381     3.7646714     -0.69731872   
   1628000   0.45134037     3.7601572     -0.63950038   
   1629000   0.45003385     3.8071208     -0.67373656   
   1630000   0.44857033     3.8287956     -0.74626632   
   1631000   0.45020912     3.7723886     -0.80500818   
   1632000   0.44679581     3.7562815     -0.76054809   
   1633000   0.45368253     3.8337483     -0.76607343   
   1634000   0.44757947     3.8406719     -0.70803339   
   1635000   0.45049374     3.8214893     -0.67516522   
   1636000   0.45242433     3.7965306     -0.67807812   
   1637000   0.44204297     3.7741422     -0.67532177   
   1638000   0.45305263     3.784775      -0.70640692   
   1639000   0.45048671     3.7624257     -0.74412584   
   1640000   0.44390467     3.8068418     -0.73258708   
   1641000   0.44614286     3.7451448     -0.66769526   
   1642000   0.45198499     3.788391      -0.74732531   
   1643000   0.45011848     3.7224192     -0.76131461   
   1644000   0.44882687     3.7685303     -0.72423131   
   1645000   0.45189229     3.7732483     -0.70612187   
   1646000   0.45284586     3.7533543     -0.6953785    
   1647000   0.44916114     3.7379213     -0.71249748   
   1648000   0.44823816     3.7880547     -0.72376181   
   1649000   0.44546079     3.7235226     -0.71005106   
   1650000   0.44674956     3.8179087     -0.76735675   
   1651000   0.4494121      3.765987      -0.77854297   
   1652000   0.44883999     3.750568      -0.83548515   
   1653000   0.45487474     3.7383037     -0.76034297   
   1654000   0.45215056     3.7633944     -0.75651928   
   1655000   0.45461471     3.7747513     -0.76752098   
   1656000   0.44720927     3.7662418     -0.67457851   
   1657000   0.4485802      3.7453986     -0.72791983   
   1658000   0.4536088      3.7832498     -0.81304409   
   1659000   0.45218196     3.7380638     -0.74887231   
   1660000   0.44998024     3.8011858     -0.69611426   
   1661000   0.44815073     3.762809      -0.7270747    
   1662000   0.4514491      3.7703317     -0.75095952   
   1663000   0.45351095     3.8329898     -0.72376872   
   1664000   0.45271404     3.8140276     -0.70343315   
   1665000   0.45371705     3.8142948     -0.72403663   
   1666000   0.44935088     3.7671258     -0.74085023   
   1667000   0.44985703     3.7848903     -0.64859676   
   1668000   0.45584506     3.7781949     -0.65319563   
   1669000   0.45376101     3.7189177     -0.7367245    
   1670000   0.45100996     3.7392344     -0.71042605   
   1671000   0.44933366     3.7505026     -0.76414738   
   1672000   0.44762467     3.7552529     -0.78029341   
   1673000   0.44560341     3.7375734     -0.79626278   
   1674000   0.45036611     3.8436648     -0.74964635   
   1675000   0.44804654     3.7277565     -0.76754059   
   1676000   0.45028136     3.8508965     -0.7354955    
   1677000   0.44771198     3.7942715     -0.68747236   
   1678000   0.44408348     3.8406223     -0.72570509   
   1679000   0.44985975     3.7767863     -0.70826485   
   1680000   0.45301923     3.7553579     -0.7167768    
   1681000   0.44929346     3.7654685     -0.75617722   
   1682000   0.44850678     3.7497752     -0.82028491   
   1683000   0.45353813     3.7736678     -0.75624493   
   1684000   0.4491523      3.8101241     -0.71746338   
   1685000   0.44999783     3.7886762     -0.67197731   
   1686000   0.45140989     3.7919501     -0.707346     
   1687000   0.45405681     3.7911916     -0.69480457   
   1688000   0.44759541     3.7935562     -0.7578746    
   1689000   0.45001964     3.8370743     -0.67338293   
   1690000   0.4547279      3.795547      -0.68437383   
   1691000   0.4485038      3.7578906     -0.75919034   
   1692000   0.45229264     3.7893177     -0.66264047   
   1693000   0.4453897      3.7324774     -0.70348982   
   1694000   0.44720492     3.8286683     -0.64136071   
   1695000   0.45028139     3.7705359     -0.6928062    
   1696000   0.45102084     3.7586241     -0.67369609   
   1697000   0.44780724     3.7892021     -0.66583688   
   1698000   0.45093839     3.7419159     -0.65733137   
   1699000   0.44865397     3.7989852     -0.68656275   
   1700000   0.45055085     3.7797378     -0.700893     
   1701000   0.44696418     3.8365739     -0.74779899   
   1702000   0.45331459     3.7436336     -0.74188723   
   1703000   0.44834302     3.782175      -0.68855024   
   1704000   0.45191137     3.7738552     -0.73753413   
   1705000   0.44914646     3.7748917     -0.73752507   
   1706000   0.45417503     3.7999937     -0.66176029   
   1707000   0.44687283     3.7011829     -0.65536475   
   1708000   0.44626584     3.8041971     -0.71196023   
   1709000   0.4481536      3.7499967     -0.69702345   
   1710000   0.45158271     3.7484303     -0.69787247   
   1711000   0.4479776      3.7442055     -0.6301621    
   1712000   0.45153852     3.7603691     -0.72472318   
   1713000   0.45490993     3.7739353     -0.81699225   
   1714000   0.44834872     3.78286       -0.79255569   
   1715000   0.44841855     3.7372778     -0.75720715   
   1716000   0.45151661     3.810012      -0.67709868   
   1717000   0.4473931      3.7820417     -0.77795484   
   1718000   0.44676838     3.7497796     -0.68208259   
   1719000   0.45244577     3.8351027     -0.73517419   
   1720000   0.44484368     3.7717753     -0.75029783   
   1721000   0.4497642      3.7631387     -0.7521672    
   1722000   0.45246431     3.8027057     -0.68881094   
   1723000   0.45079513     3.7987419     -0.62837948   
   1724000   0.45093623     3.7227448     -0.72277408   
   1725000   0.45032995     3.7691124     -0.76715821   
   1726000   0.44798161     3.7722225     -0.75251728   
   1727000   0.44950776     3.7496822     -0.64221929   
   1728000   0.44947184     3.7507976     -0.71974522   
   1729000   0.45258428     3.7459364     -0.7250983    
   1730000   0.44947169     3.735372      -0.67079324   
   1731000   0.45534793     3.7491554     -0.71507185   
   1732000   0.44965517     3.7662294     -0.80915574   
   1733000   0.44837525     3.8184982     -0.69784175   
   1734000   0.44970631     3.8192071     -0.72345474   
   1735000   0.44629514     3.7446536     -0.7970855    
   1736000   0.44603531     3.7820994     -0.73314332   
   1737000   0.45108939     3.7678119     -0.77764024   
   1738000   0.44918837     3.7481506     -0.69283316   
   1739000   0.45054868     3.8003636     -0.74595335   
   1740000   0.44595953     3.8033861     -0.72363294   
   1741000   0.44976003     3.7793633     -0.67670965   
   1742000   0.45543202     3.7537074     -0.74822634   
   1743000   0.45235388     3.7501358     -0.77047614   
   1744000   0.44420796     3.7940242     -0.75859535   
   1745000   0.44668292     3.8045615     -0.61064042   
   1746000   0.45134854     3.7887941     -0.71774563   
   1747000   0.44997933     3.798812      -0.75043551   
   1748000   0.45210305     3.8300525     -0.7180376    
   1749000   0.44813849     3.8003096     -0.74551748   
   1750000   0.45038902     3.7824908     -0.75086064   
   1751000   0.44998328     3.7933181     -0.65028457   
   1752000   0.4487509      3.7676601     -0.67190608   
   1753000   0.44910872     3.7280217     -0.73972508   
   1754000   0.45039331     3.7755417     -0.66630604   
   1755000   0.44826377     3.7313458     -0.57768188   
   1756000   0.4494016      3.7588585     -0.63055747   
   1757000   0.44904539     3.6912833     -0.63514541   
   1758000   0.45332435     3.8038822     -0.68920056   
   1759000   0.44284287     3.7103861     -0.74871213   
   1760000   0.45154195     3.7947697     -0.63688172   
   1761000   0.45162455     3.7173638     -0.71813696   
   1762000   0.45112752     3.7699686     -0.6827138    
   1763000   0.44941141     3.717122      -0.76850125   
   1764000   0.45657077     3.799105      -0.73167363   
   1765000   0.45078293     3.7385569     -0.73079469   
   1766000   0.4536468      3.7743664     -0.69856763   
   1767000   0.45032101     3.7095737     -0.79448584   
   1768000   0.44796148     3.7818728     -0.72874866   
   1769000   0.45144063     3.8007843     -0.75353404   
   1770000   0.44785858     3.8104918     -0.71573984   
   1771000   0.44953771     3.7781943     -0.70626672   
   1772000   0.44821114     3.7522538     -0.65412843   
   1773000   0.4456187      3.8172717     -0.71742734   
   1774000   0.45290556     3.7574527     -0.73150611   
   1775000   0.45126639     3.8057683     -0.72308043   
   1776000   0.44813338     3.7535891     -0.72730565   
   1777000   0.45588516     3.8412147     -0.73927908   
   1778000   0.44722337     3.7671524     -0.80102493   
   1779000   0.45663878     3.8188482     -0.71594153   
   1780000   0.44709107     3.8036094     -0.77400839   
   1781000   0.45253978     3.8248574     -0.83210086   
   1782000   0.45144319     3.8168083     -0.74944808   
   1783000   0.44381258     3.7974468     -0.72613081   
   1784000   0.44979823     3.886035      -0.69914568   
   1785000   0.44762061     3.8296524     -0.74061649   
   1786000   0.4499652      3.8528599     -0.72580453   
   1787000   0.45138342     3.8024539     -0.70535018   
   1788000   0.44904775     3.8404217     -0.74564673   
   1789000   0.45114323     3.7906768     -0.65639735   
   1790000   0.44844737     3.7758194     -0.73424997   
   1791000   0.45040635     3.7546475     -0.76312901   
   1792000   0.45151715     3.7476101     -0.69617439   
   1793000   0.44075318     3.8306834     -0.72655353   
   1794000   0.44991781     3.8222472     -0.70098676   
   1795000   0.44615313     3.7964817     -0.71158964   
   1796000   0.45130384     3.7798021     -0.63510307   
   1797000   0.44801203     3.7853847     -0.74382289   
   1798000   0.44889406     3.7574001     -0.73267681   
   1799000   0.44986036     3.7536041     -0.73822971   
   1800000   0.44441551     3.7448244     -0.71659676   
   1801000   0.44801689     3.7575751     -0.7248808    
   1802000   0.45106183     3.7646686     -0.71512305   
   1803000   0.44848328     3.7637908     -0.74007681   
   1804000   0.45334723     3.8135256     -0.77048652   
   1805000   0.44973375     3.8183649     -0.69684998   
   1806000   0.44846132     3.7494107     -0.73138496   
   1807000   0.44997823     3.7466257     -0.71219169   
   1808000   0.44527405     3.7702677     -0.65877378   
   1809000   0.45435196     3.7852236     -0.70358752   
   1810000   0.44813427     3.750968      -0.66958212   
   1811000   0.4523313      3.8465969     -0.78497978   
   1812000   0.44691901     3.7495388     -0.7515794    
   1813000   0.45136335     3.7520773     -0.77859874   
   1814000   0.44810753     3.7614857     -0.78623564   
   1815000   0.44642241     3.7634586     -0.76696307   
   1816000   0.45155521     3.7785967     -0.69975685   
   1817000   0.45292117     3.7716746     -0.70645368   
   1818000   0.44663991     3.7847882     -0.68902099   
   1819000   0.45036767     3.7936659     -0.6890219    
   1820000   0.44893637     3.7670866     -0.77295863   
   1821000   0.4468339      3.7413602     -0.73781391   
   1822000   0.45116026     3.8303471     -0.76391845   
   1823000   0.45040054     3.7991064     -0.71182235   
   1824000   0.44991037     3.7428964     -0.75415196   
   1825000   0.44944098     3.7856177     -0.74527629   
   1826000   0.45327337     3.8092882     -0.71737711   
   1827000   0.44793945     3.7798708     -0.7208416    
   1828000   0.44559683     3.763118      -0.72210663   
   1829000   0.44854497     3.8037912     -0.73266702   
   1830000   0.45018345     3.8012592     -0.628732     
   1831000   0.4453916      3.7646632     -0.71310745   
   1832000   0.44721498     3.8076092     -0.74905494   
   1833000   0.4528079      3.7689857     -0.72818658   
   1834000   0.45277656     3.7299646     -0.71775907   
   1835000   0.45084084     3.7593839     -0.74152309   
   1836000   0.44902074     3.7828408     -0.75490437   
   1837000   0.45158074     3.8207442     -0.72654427   
   1838000   0.44419885     3.7720468     -0.83050079   
   1839000   0.44780293     3.8131553     -0.81260127   
   1840000   0.45039598     3.7818865     -0.78566681   
   1841000   0.44963086     3.7870016     -0.73660184   
   1842000   0.45213616     3.7821962     -0.73595168   
   1843000   0.45325488     3.7857003     -0.74352521   
   1844000   0.45117392     3.8456273     -0.68443574   
   1845000   0.45269249     3.7912114     -0.72422566   
   1846000   0.45280984     3.8173744     -0.61849762   
   1847000   0.44490411     3.7894015     -0.74860954   
   1848000   0.44757098     3.8369786     -0.68504048   
   1849000   0.44944759     3.8185264     -0.71658039   
   1850000   0.44962879     3.8167741     -0.6530385    
   1851000   0.44838914     3.7921256     -0.70783343   
   1852000   0.44874936     3.7767943     -0.70997112   
   1853000   0.45236072     3.7585251     -0.6400743    
   1854000   0.4493327      3.7187176     -0.72219086   
   1855000   0.44725862     3.8046568     -0.68902302   
   1856000   0.44897197     3.8084179     -0.80473819   
   1857000   0.45046306     3.777943      -0.68966769   
   1858000   0.45029822     3.781316      -0.69630151   
   1859000   0.44861621     3.7985841     -0.73008589   
   1860000   0.45209911     3.7802292     -0.70124398   
   1861000   0.45030718     3.7822266     -0.76274305   
   1862000   0.4462579      3.8000091     -0.6859568    
   1863000   0.44611789     3.7496312     -0.74112197   
   1864000   0.44338001     3.7853732     -0.71455587   
   1865000   0.44869064     3.7808272     -0.7171346    
   1866000   0.447137       3.7803055     -0.68148251   
   1867000   0.44857342     3.7871292     -0.70117157   
   1868000   0.45084818     3.7841867     -0.76665071   
   1869000   0.45016711     3.7693976     -0.752503     
   1870000   0.44784945     3.7284517     -0.75500958   
   1871000   0.4557095      3.8209373     -0.8621823    
   1872000   0.44371303     3.7555513     -0.77733548   
   1873000   0.4482368      3.8193302     -0.74454408   
   1874000   0.45081129     3.8608933     -0.7829879    
   1875000   0.45344711     3.7356668     -0.81278521   
   1876000   0.45336418     3.7774049     -0.76527571   
   1877000   0.450784       3.772826      -0.7837147    
   1878000   0.45050238     3.7701364     -0.76536922   
   1879000   0.44982619     3.8204838     -0.73561409   
   1880000   0.4457229      3.7848616     -0.76719202   
   1881000   0.44709485     3.8486619     -0.74305862   
   1882000   0.44795673     3.7504503     -0.77103253   
   1883000   0.45422355     3.8077205     -0.73546453   
   1884000   0.44567559     3.7583953     -0.68841336   
   1885000   0.4546452      3.8059467     -0.68462268   
   1886000   0.45630044     3.8109838     -0.76384238   
   1887000   0.44922216     3.8013154     -0.73389978   
   1888000   0.45290477     3.8497379     -0.64792491   
   1889000   0.44846367     3.8068892     -0.75147182   
   1890000   0.4501224      3.7650049     -0.6410365    
   1891000   0.45364941     3.8218462     -0.72068107   
   1892000   0.44783556     3.7510999     -0.70915844   
   1893000   0.44995831     3.815768      -0.7008894    
   1894000   0.45219013     3.7336014     -0.65773042   
   1895000   0.4486164      3.7671866     -0.64360443   
   1896000   0.44914602     3.7627012     -0.63909815   
   1897000   0.45435215     3.7943141     -0.6761436    
   1898000   0.44912577     3.7475673     -0.76444328   
   1899000   0.44790123     3.7690632     -0.75785857   
   1900000   0.44922381     3.7536709     -0.68120013   
   1901000   0.44719349     3.8121973     -0.70511829   
   1902000   0.45179904     3.7099525     -0.7076248    
   1903000   0.45650302     3.7334781     -0.69960665   
   1904000   0.44792726     3.7339783     -0.71640875   
   1905000   0.45056712     3.6956964     -0.74879871   
   1906000   0.44292309     3.7487414     -0.78626942   
   1907000   0.45289585     3.7848629     -0.81628917   
   1908000   0.44952203     3.7931407     -0.70784912   
   1909000   0.45191741     3.768207      -0.77203233   
[...]
   3006000   0.447351       3.7865201     -0.69843247   
   3007000   0.44862965     3.7143711     -0.72419109   
   3008000   0.44959465     3.7473832     -0.71547411   
   3009000   0.45296762     3.769842      -0.72888291   
   3010000   0.44933652     3.7819372     -0.6907105    
   3011000   0.45145089     3.7474259     -0.77610296   
   3012000   0.45327643     3.7743318     -0.7118376    
   3013000   0.44884889     3.7583663     -0.74053019   
   3014000   0.4501012      3.729723      -0.7614996    
   3015000   0.4501242      3.824903      -0.68948772   
   3016000   0.44374497     3.8024539     -0.76047292   
   3017000   0.44894233     3.7228963     -0.73066099   
   3018000   0.44731394     3.7785046     -0.71069059   
   3019000   0.45140482     3.7403365     -0.7349656    
   3020000   0.45359025     3.7758272     -0.70831512   
   3021000   0.44834259     3.7362022     -0.64835715   
   3022000   0.4473685      3.7700203     -0.71494621   
   3023000   0.45122558     3.7625628     -0.7352785    
   3024000   0.44724443     3.7778751     -0.72558405   
   3025000   0.45586007     3.8145403     -0.7698216    
   3026000   0.45030489     3.7599438     -0.79403583   
   3027000   0.45184758     3.7787187     -0.67252584   
   3028000   0.44805344     3.7286135     -0.76830201   
   3029000   0.45054726     3.8017429     -0.75612822   
   3030000   0.45053004     3.7057412     -0.77158507   
   3031000   0.45258444     3.7901795     -0.74836754   
   3032000   0.45168612     3.7904721     -0.70639839   
   3033000   0.44803839     3.8467331     -0.71129153   
   3034000   0.45095447     3.7793514     -0.72465691   
   3035000   0.45326128     3.817356      -0.6947752    
   3036000   0.4528131      3.8096369     -0.7313226    
   3037000   0.45231496     3.7962357     -0.72349542   
   3038000   0.4518326      3.7355068     -0.75199049   
   3039000   0.45604325     3.775489      -0.69044947   
   3040000   0.44275775     3.7444842     -0.73160208   
   3041000   0.45052129     3.81392       -0.69397101   
   3042000   0.45049163     3.7885734     -0.71061331   
   3043000   0.44982457     3.8273598     -0.73529765   
   3044000   0.45058967     3.794203      -0.78324289   
   3045000   0.45101885     3.7905155     -0.73025971   
   3046000   0.45003938     3.7492574     -0.69336211   
   3047000   0.45423619     3.7442318     -0.72188845   
   3048000   0.44739507     3.7878841     -0.68666126   
   3049000   0.44956422     3.7583343     -0.72482053   
   3050000   0.45503787     3.8294506     -0.73947903   
   3051000   0.44516241     3.7689667     -0.66673516   
   3052000   0.45367765     3.7796645     -0.72577866   
   3053000   0.44459017     3.7588003     -0.70081951   
   3054000   0.44961045     3.788945      -0.6829114    
   3055000   0.45106519     3.7636456     -0.77247879   
   3056000   0.45293105     3.7839093     -0.66863588   
   3057000   0.44555524     3.7830048     -0.74069314   
   3058000   0.44938011     3.7954755     -0.71858431   
   3059000   0.45306302     3.7874806     -0.69299027   
   3060000   0.44806447     3.7617519     -0.7140557    
   3061000   0.44920718     3.7660874     -0.70920391   
   3062000   0.4490081      3.7580075     -0.71512221   
   3063000   0.44834993     3.7656477     -0.68114472   
   3064000   0.44968447     3.7506331     -0.66812503   
   3065000   0.44580366     3.7345442     -0.69777979   
   3066000   0.44870997     3.774347      -0.61741443   
   3067000   0.4466123      3.7813277     -0.67961216   
   3068000   0.45136368     3.766351      -0.70747496   
   3069000   0.4452687      3.7639298     -0.73326253   
   3070000   0.45441922     3.7860216     -0.7206985    
   3071000   0.44705181     3.7309638     -0.64130626   
   3072000   0.45171759     3.7679227     -0.73471127   
   3073000   0.44884067     3.7594191     -0.80285266   
   3074000   0.44572368     3.825811      -0.70872223   
   3075000   0.44997652     3.7788783     -0.74670691   
   3076000   0.45066512     3.7588045     -0.7782183    
   3077000   0.45153758     3.8246076     -0.69530652   
   3078000   0.44675516     3.7678118     -0.65943459   
   3079000   0.4510675      3.7594536     -0.71853101   
   3080000   0.45055836     3.720946      -0.67510459   
   3081000   0.4478275      3.7924017     -0.71507545   
   3082000   0.4499871      3.83435       -0.7802243    
   3083000   0.44793543     3.7850751     -0.76653985   
   3084000   0.44832173     3.8159547     -0.75953746   
   3085000   0.44592631     3.7708253     -0.71528142   
   3086000   0.44762193     3.793645      -0.71265708   
   3087000   0.45353758     3.8061254     -0.72246945   
   3088000   0.44563384     3.7628261     -0.69580013   
   3089000   0.45222919     3.8110515     -0.66436826   
   3090000   0.4477         3.7620403     -0.71352698   
   3091000   0.44908282     3.7127801     -0.71814878   
   3092000   0.45265494     3.7839893     -0.69445357   
   3093000   0.44865655     3.7229746     -0.77669777   
   3094000   0.45391769     3.7595407     -0.68118367   
   3095000   0.4526358      3.7526326     -0.81284024   
   3096000   0.4470239      3.772691      -0.81963619   
   3097000   0.45333939     3.826528      -0.76225789   
   3098000   0.45119809     3.772776      -0.84352161   
   3099000   0.45190145     3.7757697     -0.64883211   
   3100000   0.45246031     3.8105282     -0.7358947    
   3101000   0.44833622     3.7971495     -0.71079222   
   3102000   0.44797857     3.8170547     -0.7175372    
   3103000   0.45195654     3.8358472     -0.70872441   
   3104000   0.4483735      3.7670174     -0.64027661   
   3105000   0.45281929     3.7856597     -0.70030392   
   3106000   0.4536151      3.8152827     -0.70833729   
   3107000   0.44660682     3.7934276     -0.68860728   
   3108000   0.44809982     3.7523684     -0.68738034   
   3109000   0.45033273     3.7551631     -0.6850431    
   3110000   0.44959367     3.7950008     -0.74312103   
   3111000   0.44562526     3.7664134     -0.71833859   
   3112000   0.45122166     3.7541435     -0.71153848   
   3113000   0.44965282     3.6988451     -0.65232174   
   3114000   0.4492857      3.7768298     -0.74497351   
   3115000   0.45369262     3.7288996     -0.66437988   
   3116000   0.45366824     3.7784223     -0.74289223   
   3117000   0.44642611     3.7164649     -0.72569635   
   3118000   0.45588668     3.802723      -0.75632285   
   3119000   0.44863731     3.7670455     -0.76618407   
   3120000   0.45196297     3.8075824     -0.67271543   
   3121000   0.44839212     3.7498555     -0.74534291   
   3122000   0.45045814     3.7648887     -0.74187759   
   3123000   0.45009038     3.7462211     -0.73657752   
   3124000   0.44929779     3.7531477     -0.67545267   
   3125000   0.45004504     3.8098646     -0.81278269   
   3126000   0.45130457     3.8282579     -0.75845313   
   3127000   0.45040358     3.7552368     -0.77178023   
   3128000   0.44968881     3.7639428     -0.80884133   
   3129000   0.44804307     3.8099353     -0.75174617   
   3130000   0.45141072     3.7956867     -0.71008642   
   3131000   0.45067795     3.7762697     -0.69511731   
   3132000   0.45254149     3.7895193     -0.7071214    
   3133000   0.45343068     3.7287261     -0.70824646   
   3134000   0.44963733     3.7750915     -0.76092847   
   3135000   0.44699361     3.7825318     -0.73082615   
   3136000   0.44815597     3.7427994     -0.75504315   
   3137000   0.4440933      3.7723645     -0.74402566   
   3138000   0.45108488     3.7707597     -0.92140611   
   3139000   0.44568475     3.7851145     -0.74904283   
   3140000   0.4529109      3.8190688     -0.84921663   
   3141000   0.45063553     3.7386332     -0.70793485   
   3142000   0.44545403     3.7513495     -0.80897053   
   3143000   0.45506618     3.7970225     -0.77764674   
   3144000   0.45138392     3.7931826     -0.74906839   
   3145000   0.44987117     3.8058717     -0.74891603   
   3146000   0.45167003     3.8190611     -0.67018415   
   3147000   0.44979104     3.8557217     -0.62638347   
   3148000   0.44959315     3.7749706     -0.68672004   
   3149000   0.4491863      3.7832285     -0.64994248   
   3150000   0.44770147     3.764808      -0.72913243   
   3151000   0.44561458     3.7854126     -0.72333088   
   3152000   0.44670445     3.7952399     -0.75575853   
   3153000   0.4468849      3.7957556     -0.66162309   
   3154000   0.45098344     3.8162266     -0.69181417   
   3155000   0.45259409     3.8396606     -0.71512163   
   3156000   0.45197195     3.8125333     -0.67474388   
   3157000   0.44754841     3.7784376     -0.61472676   
   3158000   0.44923912     3.7940962     -0.69244526   
   3159000   0.4566038      3.8095864     -0.65155124   
   3160000   0.44503841     3.7597918     -0.64415598   
   3161000   0.45214163     3.7775553     -0.63084544   
   3162000   0.44882924     3.791565      -0.73268231   
   3163000   0.44610216     3.7432049     -0.68513442   
   3164000   0.45021175     3.7911648     -0.70495388   
   3165000   0.45375013     3.7548959     -0.72000689   
   3166000   0.44973742     3.7334652     -0.69569728   
   3167000   0.45141515     3.7657235     -0.65298557   
   3168000   0.44939545     3.7801389     -0.74871324   
   3169000   0.44678951     3.7383611     -0.72937593   
   3170000   0.45030671     3.7456355     -0.70723006   
   3171000   0.44880346     3.7605931     -0.73381447   
   3172000   0.4514347      3.804151      -0.71735146   
   3173000   0.44845735     3.771159      -0.78676129   
   3174000   0.45191933     3.8005222     -0.7763207    
   3175000   0.44556982     3.8066127     -0.78461216   
   3176000   0.45182821     3.757793      -0.72593642   
   3177000   0.44552729     3.7481874     -0.68578905   
   3178000   0.44815191     3.7922085     -0.70938519   
   3179000   0.453351       3.784716      -0.79642759   
   3180000   0.44790008     3.7932983     -0.7058571    
   3181000   0.44288838     3.774412      -0.75473383   
   3182000   0.45079819     3.8556688     -0.70891688   
   3183000   0.44798048     3.7561314     -0.75016921   
   3184000   0.4504458      3.7796923     -0.6901528    
   3185000   0.44539072     3.7432618     -0.67634838   
   3186000   0.45396336     3.8060605     -0.63845921   
   3187000   0.4533822      3.7972174     -0.73317043   
   3188000   0.44523691     3.7775229     -0.76564752   
   3189000   0.44800496     3.7674533     -0.70361359   
   3190000   0.45101844     3.7900182     -0.73705538   
   3191000   0.45382175     3.8032368     -0.69402016   
   3192000   0.44629292     3.7389823     -0.69855044   
   3193000   0.45619322     3.7377496     -0.82226797   
   3194000   0.45203854     3.7056263     -0.70101342   
   3195000   0.45017246     3.7859532     -0.77892971   
   3196000   0.44718496     3.7290235     -0.70530562   
   3197000   0.45393256     3.8016163     -0.73857445   
   3198000   0.45540471     3.7887811     -0.74228539   
   3199000   0.44929009     3.7601367     -0.66533851   
   3200000   0.44462854     3.7802773     -0.71947249   
   3201000   0.4533694      3.7788482     -0.66600196   
   3202000   0.44772339     3.7730138     -0.6647784    
   3203000   0.45454329     3.7832163     -0.70571872   
   3204000   0.44812668     3.7041151     -0.75530182   
   3205000   0.45103147     3.7764103     -0.65017098   
   3206000   0.44749099     3.752786      -0.76841962   
   3207000   0.44949578     3.7764574     -0.65111483   
   3208000   0.4475893      3.7790127     -0.66799557   
   3209000   0.44931751     3.7647615     -0.69119716   
   3210000   0.45251767     3.7719431     -0.7069129    
   3211000   0.44658257     3.7742978     -0.75471722   
   3212000   0.44745553     3.7427089     -0.76839689   
   3213000   0.44849377     3.7684576     -0.7659368    
   3214000   0.44775908     3.7779295     -0.67060836   
   3215000   0.45211742     3.7956381     -0.66329201   
   3216000   0.44575769     3.7711262     -0.71504282   
   3217000   0.45458874     3.8040504     -0.77097714   
   3218000   0.45071468     3.7629581     -0.8182127    
   3219000   0.44510366     3.7769286     -0.75949695   
   3220000   0.44988334     3.8093572     -0.72733211   
   3221000   0.44858179     3.7724251     -0.67615252   
   3222000   0.44804062     3.8266033     -0.7380161    
   3223000   0.44809425     3.7810244     -0.73437703   
   3224000   0.45551022     3.7850938     -0.75675595   
   3225000   0.44560142     3.750717      -0.77446599   
   3226000   0.45246414     3.8180786     -0.71236031   
   3227000   0.44513347     3.7547013     -0.81938396   
   3228000   0.45444839     3.7790132     -0.75181079   
   3229000   0.44530324     3.7477617     -0.72299344   
   3230000   0.4490242      3.8270414     -0.74404798   
   3231000   0.4485271      3.7382019     -0.65051017   
   3232000   0.45078532     3.7927203     -0.68874687   
   3233000   0.44680056     3.7537529     -0.75352435   
   3234000   0.4473117      3.7829367     -0.70449677   
   3235000   0.45314487     3.7698357     -0.78797936   
   3236000   0.44768196     3.7527053     -0.71775256   
   3237000   0.4519121      3.7322341     -0.77079471   
   3238000   0.45048122     3.8474095     -0.77474345   
   3239000   0.44604142     3.7265138     -0.78511741   
   3240000   0.45018636     3.7902686     -0.71890036   
   3241000   0.44962485     3.7703497     -0.75258334   
   3242000   0.44797625     3.7605478     -0.67454945   
   3243000   0.4514007      3.7699787     -0.75772553   
   3244000   0.44539408     3.7386942     -0.71032531   
   3245000   0.45749519     3.8209739     -0.71847621   
   3246000   0.44186367     3.7548936     -0.6882539    
   3247000   0.45267245     3.8273294     -0.75894583   
   3248000   0.44931643     3.7829769     -0.7231066    
   3249000   0.45019865     3.7665785     -0.72110596   
   3250000   0.45188237     3.7588439     -0.6433813    
   3251000   0.44333342     3.7564654     -0.68844698   
   3252000   0.44739277     3.7317676     -0.68277014   
   3253000   0.45141588     3.7379924     -0.71053439   
   3254000   0.45018262     3.76057       -0.68689604   
   3255000   0.44589148     3.7598604     -0.67489729   
   3256000   0.45067793     3.7788609     -0.68302976   
   3257000   0.45177979     3.713944      -0.74857576   
   3258000   0.45008435     3.7905854     -0.69810749   
   3259000   0.45324722     3.7682766     -0.74642327   
   3260000   0.4471933      3.7488207     -0.78535178   
   3261000   0.44993577     3.7717353     -0.79075498   
   3262000   0.44852687     3.7957987     -0.85699491   
   3263000   0.44667764     3.8053288     -0.73337594   
   3264000   0.45205751     3.7872873     -0.73167409   
   3265000   0.45296098     3.8057147     -0.67828671   
   3266000   0.45125847     3.7855728     -0.7507438    
   3267000   0.44596339     3.7564494     -0.69621815   
   3268000   0.44911481     3.752765      -0.69881565   
   3269000   0.44955886     3.741839      -0.71586798   
   3270000   0.44820976     3.7871405     -0.74006796   
   3271000   0.45206177     3.7938964     -0.75473107   
   3272000   0.45218071     3.7684113     -0.70092185   
   3273000   0.44892447     3.7892633     -0.68429013   
   3274000   0.44997741     3.7739465     -0.78212907   
   3275000   0.44663005     3.7429678     -0.78889897   
   3276000   0.45435762     3.7271898     -0.76220651   
   3277000   0.45061508     3.8054005     -0.7750957    
   3278000   0.45078675     3.7707043     -0.80003973   
   3279000   0.45206061     3.7938973     -0.73075386   
   3280000   0.4490441      3.7642482     -0.72665732   
   3281000   0.4521178      3.8101592     -0.69936825   
   3282000   0.45490121     3.7348926     -0.80129397   
   3283000   0.45579452     3.7350394     -0.79912056   
   3284000   0.44731478     3.7710827     -0.70543396   
   3285000   0.44843601     3.7460062     -0.70269628   
   3286000   0.45135759     3.7978011     -0.70175103   
   3287000   0.45322835     3.8316795     -0.75046993   
   3288000   0.44380693     3.7872414     -0.67136012   
   3289000   0.4475968      3.8448787     -0.63706966   
   3290000   0.45071466     3.7829906     -0.72054911   
   3291000   0.44960923     3.7624706     -0.68991519   
   3292000   0.45100796     3.8055132     -0.63348803   
   3293000   0.45050767     3.7647081     -0.66074973   
   3294000   0.45057529     3.7851699     -0.70038461   
   3295000   0.44982108     3.8083961     -0.68941859   
   3296000   0.44892409     3.7430063     -0.70218474   
   3297000   0.44784279     3.7714717     -0.76950652   
   3298000   0.45291734     3.782187      -0.75205367   
   3299000   0.44749065     3.7629716     -0.80033776   
   3300000   0.4491077      3.7746599     -0.78002577   
   3301000   0.4495289      3.7625774     -0.71542419   
   3302000   0.44535889     3.8033507     -0.75796968   
   3303000   0.44526828     3.7425448     -0.69179209   
   3304000   0.45170964     3.8103884     -0.66809112   
   3305000   0.4481315      3.7406266     -0.74558181   
   3306000   0.4510788      3.7721556     -0.68461964   
   3307000   0.45091082     3.7662574     -0.66719934   
   3308000   0.44970071     3.7968129     -0.70001579   
   3309000   0.44935747     3.8867599     -0.68208794   
   3310000   0.45094824     3.7754196     -0.65184645   
   3311000   0.45024001     3.7597314     -0.69258137   
   3312000   0.45426154     3.8000008     -0.69701887   
   3313000   0.45137363     3.7616865     -0.73156426   
   3314000   0.44813075     3.7504739     -0.63358681   
   3315000   0.44976877     3.7333471     -0.70415518   
   3316000   0.45167895     3.7865669     -0.67033538   
   3317000   0.44718625     3.713918      -0.70228439   
   3318000   0.45624023     3.7874104     -0.69491896   
   3319000   0.45209639     3.7014141     -0.73663116   
   3320000   0.45025675     3.724332      -0.70673136   
   3321000   0.44762714     3.7617838     -0.74708258   
   3322000   0.44975159     3.8131948     -0.73510825   
   3323000   0.44415161     3.7761377     -0.75167386   
   3324000   0.44822578     3.7769974     -0.65975237   
   3325000   0.45243656     3.7484881     -0.68780807   
   3326000   0.44648069     3.8712624     -0.72552539   
   3327000   0.44602401     3.8616317     -0.76370022   
   3328000   0.44659888     3.8059588     -0.81317616   
   3329000   0.45294508     3.7128778     -0.7762424    
   3330000   0.45192095     3.802812      -0.72141086   
   3331000   0.44518632     3.7751366     -0.73336553   
   3332000   0.44818848     3.8278503     -0.78745605   
   3333000   0.45111184     3.7861902     -0.72150949   
   3333333   0.45119494     3.7567842     -0.69413752   
Loop time of 7460.24 on 22 procs for 3333333 steps with 16500 atoms

Performance: 38604.675 tau/day, 446.813 timesteps/s, 7.372 Matom-step/s
93.9% CPU use with 22 MPI tasks x 1 OpenMP threads

MPI task timing breakdown:
Section |  min time  |  avg time  |  max time  |%varavg| %total
---------------------------------------------------------------
Pair    | 3626.1     | 3733.6     | 3836.3     |  85.9 | 50.05
Neigh   | 512.38     | 518.69     | 524.92     |  13.4 |  6.95
Comm    | 1960.2     | 2043       | 2124.9     | 102.4 | 27.38
Output  | 18.229     | 26.577     | 34.791     |  96.4 |  0.36
Modify  | 911.05     | 962.06     | 1033.1     | 122.1 | 12.90
Other   |            | 176.4      |            |       |  2.36

Nlocal:            750 ave         769 max         736 min
Histogram: 1 3 3 4 4 2 3 0 1 1
Nghost:        4108.45 ave        4133 max        4073 min
Histogram: 1 1 1 2 2 5 2 1 3 4
Neighs:          41240 ave       42353 max       40301 min
Histogram: 1 2 4 2 5 3 2 0 1 2

Total # of neighbors = 907281
Ave neighs/atom = 54.986727
Neighbor list builds = 77696
Dangerous builds = 0

print "Shear run complete: gamma_dot = ${SHEAR_RATE}"
Shear run complete: gamma_dot = 0.015
Total wall time: 2:43:58
