LAMMPS (10 Dec 2025)
OMP_NUM_THREADS environment is not set. Defaulting to 1 thread.
  using 1 OpenMP thread(s) per MPI task
Loaded 1 plugins from C:\Users\fangy\AppData\Local\LAMMPS 64-bit 10Dec2025-MSMPI\plugins
# ===========================================================================
# LAMMPS Input Script: SLLOD Shear Production Run (Template)
# Reference: Zeng et al., J. Chem. Phys. 163, 084512 (2025)
#
# Usage (example):
#   mpirun -np 4 lmp -in in.shear_template \
#       -var SHEAR_RATE 0.01 -var DT 0.003 -var SEED 12345 \
#       -log log.shear_0.01
#
# Required command-line variables:
#   SHEAR_RATE  : shear rate (LJ units, tau_0^{-1})
#   DT          : timestep  (0.003 for gamma_dot <= 0.01; 0.001 otherwise)
#   SEED        : random seed (reserved; not used in current version)
#
# SLLOD physics summary:
#   - Lees-Edwards BC: periodic box sheared in xy plane
#     (flow x, gradient y, vorticity z)
#   - fix deform:     d(xy)/dt = gamma_dot * Ly  (remap v required)
#   - fix nvt/sllod:  SLLOD EOM + Nose-Hoover thermostat in peculiar frame
#   - Viscosity:      eta = -<P_xy> / gamma_dot
#     (P_xy in LAMMPS = full stress, positive in compression sign convention;
#      for shear flow: P_xy = sigma_xy = -eta * gamma_dot, so eta = -P_xy/gamma_dot)
#
# Protocol:
#   Pre-run:    accumulated strain Delta_gamma = 20  (reach steady state)
#   Production: accumulated strain Delta_gamma = 50  (data collection)
#
# Output files (written to working directory, moved by bash script):
#   dump.shear_${SHEAR_RATE}.lammpstrj  : atom trajectories every 0.5/gamma_dot
#   thermo.shear_${SHEAR_RATE}.dat      : P_xy time series every 100 steps
#   visc_blockave.shear_${SHEAR_RATE}.dat : block-averaged -<P_xy>
# ===========================================================================

# ===========================
# BASIC SETUP
# ===========================
units       lj
atom_style  atomic

# ===========================
# READ EQUILIBRATED CONFIG
# ===========================
# Restores: positions, velocities, masses, box geometry,
#           pair_style and pair_coeff from the equilibration run.
read_restart  restart.equil
Reading restart file ...
  restart file = 7 Feb 2024, LAMMPS = 10 Dec 2025
WARNING: Restart file used different # of processors: 6 vs. 22 (src/read_restart.cpp:630)
  restoring atom style atomic from restart
  orthogonal box = (0 0 0) to (23.957099 23.957099 23.957099)
  1 by 2 by 11 MPI processor grid
  restoring pair style lj/cut from restart
  16500 atoms
  read_restart CPU = 0.005 seconds

# Re-specify pair potential explicitly (defensive: ensures correct parameters
# even if restart was written with a different LAMMPS version).
pair_style  lj/cut  2.5
pair_coeff  1 1  1.0   1.0   2.5
pair_coeff  1 2  1.5   0.8   2.5
pair_coeff  2 2  0.5   0.88  2.5
pair_modify  shift  yes

# Rebuild neighbor list from scratch (box geometry may change below)
neighbor      0.3  bin
neigh_modify  every 1  delay 0  check yes

# ===========================
# DERIVED PARAMETERS
# ===========================
# Thermostat damping = 100 * dt
# (100 steps per oscillation period; standard Nose-Hoover choice)
variable  DAMP        equal  100.0*${DT}
variable  DAMP        equal  100.0*0.001

# Target temperature
variable  TEMP        equal  0.45

# Pre-run steps: strain = gamma_dot * t = gamma_dot * (N_steps * dt) = 20
# => N_pre = round(20 / (gamma_dot * dt))
variable  N_pre       equal  round(20.0/(${SHEAR_RATE}*${DT}))
variable  N_pre       equal  round(20.0/(0.030*${DT}))
variable  N_pre       equal  round(20.0/(0.030*0.001))

# Production steps: strain = 50
# => N_prod = round(50 / (gamma_dot * dt))
variable  N_prod      equal  round(50.0/(${SHEAR_RATE}*${DT}))
variable  N_prod      equal  round(50.0/(0.030*${DT}))
variable  N_prod      equal  round(50.0/(0.030*0.001))

# Dump interval: Delta_t_dump = 0.5 / gamma_dot time units
# => dump_every = round(0.5 / (gamma_dot * dt)) steps
# This gives ~100 trajectory frames per strain unit (sufficient for cage jump analysis)
variable  DUMP_EVERY  equal  round(0.02/(${SHEAR_RATE}*${DT}))
variable  DUMP_EVERY  equal  round(0.02/(0.030*${DT}))
variable  DUMP_EVERY  equal  round(0.02/(0.030*0.001))

# ===========================
# CONVERT BOX TO TRICLINIC
# ===========================
# The equilibrated restart has an orthogonal box.
# fix deform with 'xy erate' requires a triclinic box to store the xy tilt.
# change_box converts orthogonal -> triclinic without moving atoms.
change_box  all  triclinic
Changing box ...
  triclinic box = (0 0 0) to (23.957099 23.957099 23.957099) with tilt (0 0 0)

# ===========================
# TIMESTEP
# ===========================
timestep  ${DT}
timestep  0.001

# ===========================
# SLLOD SHEAR FIXES
# ===========================

# --- fix deform: apply Lees-Edwards boundary condition ---
# 'xy erate ${SHEAR_RATE}' ramps the xy tilt angle at rate gamma_dot,
# producing a linear shear flow vx = gamma_dot * y.
#
# 'remap v' is REQUIRED when using fix nvt/sllod:
#   When an atom crosses the y boundary, its vx is adjusted by +/- gamma_dot*Ly
#   to maintain a smooth velocity profile across the periodic boundary.
#   fix nvt/sllod uses this to compute the streaming velocity for thermostatting.
#
# 'flip yes' (default): when |xy| > Lx/2, the box is flipped to an equivalent
#   periodic image, preventing the box from becoming arbitrarily skewed.
#   This is the standard Lees-Edwards treatment for long runs.
#
fix  shear_deform  all  deform  1  xy  erate  ${SHEAR_RATE}  remap  v  flip  yes
fix  shear_deform  all  deform  1  xy  erate  0.030  remap  v  flip  yes

# --- fix nvt/sllod: SLLOD equations of motion with Nose-Hoover thermostat ---
# Integrates: dp_i/dt = F_i - (dxz_dot)*p_yi*xhat - xi*p_i
# where dxz_dot = gamma_dot (velocity gradient).
# Internally creates compute temp/deform to compute temperature with
# streaming velocity subtracted.
# NOTE: this fix REQUIRES that fix deform uses 'remap v' (enforced by LAMMPS).
#
fix  sllod_nvt  all  nvt/sllod  temp  ${TEMP}  ${TEMP}  ${DAMP}
fix  sllod_nvt  all  nvt/sllod  temp  0.45  ${TEMP}  ${DAMP}
fix  sllod_nvt  all  nvt/sllod  temp  0.45  0.45  ${DAMP}
fix  sllod_nvt  all  nvt/sllod  temp  0.45  0.45  0.1

# --- Thermo quantities consistent with SLLOD (remove streaming velocity) ---
compute  Tdeform all temp/deform
compute  Pdeform all pressure Tdeform

thermo_modify  temp  Tdeform
thermo_modify  press Pdeform

# ===========================
# LOG THERMO (to log file)
# ===========================
thermo        1000
thermo_style  custom  step  c_Tdeform  c_Pdeform  c_Pdeform[4]
WARNING: New thermo_style command, previous thermo_modify settings will be lost (src/output.cpp:1100)
thermo_modify  flush  yes

# ===========================
# PRE-RUN: REACH STEADY STATE (Delta_gamma = 20)
# ===========================
# No file output during pre-run to avoid polluting data files with transients.
# Low shear rates (e.g., 0.001) require N_pre = 6,666,667 steps — be patient.
print "=========================================="
==========================================
print "PRE-RUN"
PRE-RUN
print "  gamma_dot   = ${SHEAR_RATE}"
  gamma_dot   = 0.030
print "  dt          = ${DT}"
  dt          = 0.001
print "  N_pre steps = ${N_pre}  (strain = 20)"
  N_pre steps = 666667  (strain = 20)
print "=========================================="
==========================================
run  ${N_pre}
run  666667
Generated 0 of 1 mixed pair_coeff terms from geometric mixing rule
Unused restart file peratom fix info:
  fix style: STORE/ATOM, fix ID: myMSD_COMPUTE_STORE
Neighbor list info ...
  update: every = 1 steps, delay = 0 steps, check = yes
  max neighbors/atom: 2000, page size: 100000
  master list distance cutoff = 2.8
  ghost atom cutoff = 2.8
  binsize = 1.4, bins = 18 18 18
  1 neighbor lists, perpetual/occasional/extra = 1 0 0
  (1) pair lj/cut, perpetual
      attributes: half, newton on
      pair build: half/bin/atomonly/newton/tri
      stencil: half/bin/3d/tri
      bin: standard
Per MPI rank memory allocation (min/avg/max) = 3.301 | 3.303 | 3.305 Mbytes
   Step       c_Tdeform      c_Pdeform     c_Pdeform[4] 
    651000   0.50667737     3.1119641     -0.028473163  
    652000   0.4355891      2.5497387     -0.55496748   
    653000   0.44400059     2.9410558     -0.98866925   
    654000   0.45719726     3.0424665     -1.3021346    
    655000   0.45009701     3.1848396     -1.4617932    
    656000   0.44809446     3.3734881     -1.4955806    
    657000   0.44788667     3.5283961     -1.3282672    
    658000   0.44602329     3.6324555     -1.265398     
    659000   0.45214838     3.6975671     -1.1203525    
    660000   0.44862989     3.6975409     -1.0054721    
    661000   0.45575347     3.7091284     -0.91139427   
    662000   0.45356847     3.6984481     -0.95590742   
    663000   0.44946638     3.7921544     -0.96989662   
    664000   0.44784349     3.7771725     -0.93879321   
    665000   0.44626979     3.7183587     -0.94918088   
    666000   0.45206503     3.7156853     -0.95584095   
    667000   0.45181595     3.8057529     -1.0129598    
    668000   0.44671159     3.7455281     -0.91882162   
    669000   0.45404162     3.8014172     -0.9943549    
    670000   0.45165793     3.7855434     -0.91217175   
    671000   0.45312858     3.8255343     -0.92741176   
    672000   0.45176858     3.8413305     -0.93678433   
    673000   0.4498783      3.8389703     -0.94136616   
    674000   0.45051103     3.8080897     -0.86099252   
    675000   0.44070591     3.7907863     -0.87001435   
    676000   0.45280653     3.8201057     -0.87325386   
    677000   0.4528685      3.8775678     -0.98741629   
    678000   0.44549041     3.9018657     -0.88350793   
    679000   0.44715845     3.8689404     -0.9877953    
    680000   0.45091159     3.9017414     -0.94826772   
    681000   0.44999213     3.8868993     -0.8306502    
    682000   0.45086463     3.9529417     -0.99122793   
    683000   0.45741825     3.9254048     -0.88558292   
    684000   0.44572103     3.9230651     -0.94889495   
    685000   0.4467938      3.8755478     -0.88907006   
    686000   0.45208393     3.9631775     -0.92401954   
    687000   0.4534587      3.9489742     -0.86471579   
    688000   0.45470493     3.9272537     -0.98903216   
    689000   0.4510411      3.902241      -0.92019266   
    690000   0.45172961     3.9194569     -0.91875104   
    691000   0.44920987     3.9148512     -0.90978607   
    692000   0.4495545      3.9714338     -0.91482355   
    693000   0.44149791     3.9742765     -0.87058669   
    694000   0.45295597     4.0046198     -0.87314993   
    695000   0.44388151     3.9899608     -0.85523956   
    696000   0.45083942     3.9836827     -0.93727673   
    697000   0.45236096     3.9531316     -0.93940341   
    698000   0.45058449     4.0030739     -0.92215865   
    699000   0.44494349     3.9135324     -0.89616932   
    700000   0.45105543     4.0005209     -0.88549202   
    701000   0.45162038     3.9451185     -0.83156762   
    702000   0.45283385     3.9820096     -0.93328809   
    703000   0.45107357     3.9891975     -0.97138068   
    704000   0.45128203     4.0280031     -0.91283122   
    705000   0.4499765      3.9637565     -0.96193122   
    706000   0.44848893     4.0217868     -0.88392352   
    707000   0.44993107     3.9998333     -0.97149582   
    708000   0.45232212     3.9926751     -0.90587023   
    709000   0.45201758     4.0130134     -0.93268881   
    710000   0.44725911     4.073568      -0.89442966   
    711000   0.44931626     3.9718313     -0.85561949   
    712000   0.44586187     3.980769      -0.94287394   
    713000   0.44809013     3.9688604     -0.92438022   
    714000   0.44714517     3.9617782     -0.94618442   
    715000   0.45559175     3.9515533     -0.94195991   
    716000   0.44711156     3.9143975     -0.8497782    
    717000   0.4490132      3.9638269     -0.92290202   
    718000   0.44522496     3.9514205     -0.83112159   
    719000   0.44944636     3.9643876     -0.89541759   
    720000   0.44748984     3.9305159     -0.90773793   
    721000   0.45149068     3.9819409     -0.94074994   
    722000   0.44934612     3.9678967     -0.93497189   
    723000   0.4535524      3.9953445     -0.97354991   
    724000   0.45006697     3.9867371     -0.93574627   
    725000   0.44749818     4.0094701     -0.87173854   
    726000   0.44984314     4.0110738     -0.94640955   
    727000   0.45103146     3.9749034     -0.9014367    
    728000   0.44925212     3.9932286     -0.96624653   
    729000   0.45418677     3.9189844     -0.86010157   
    730000   0.45112645     3.9901611     -0.85292146   
    731000   0.44590985     4.0341277     -0.82963559   
    732000   0.45141969     3.9629021     -0.89265654   
    733000   0.4510065      4.0116064     -0.93562437   
    734000   0.45142535     4.0190005     -0.9564287    
    735000   0.44752591     3.976775      -0.86376426   
    736000   0.45041651     3.9822332     -0.90647654   
    737000   0.45035871     4.0054818     -0.86309192   
    738000   0.44709785     3.9412301     -0.94641437   
    739000   0.45490983     4.0153373     -0.86695067   
    740000   0.44936915     3.9500098     -0.84155314   
    741000   0.45235836     3.984037      -0.87835176   
    742000   0.44983533     3.9752572     -0.84200353   
    743000   0.44909094     3.9901127     -0.88558775   
    744000   0.44989031     4.0018218     -0.93384344   
    745000   0.44820896     3.9614284     -0.96042954   
    746000   0.44639244     3.9808891     -0.96277009   
    747000   0.45095943     4.0254642     -0.86397827   
    748000   0.45277831     3.9718269     -0.82757575   
    749000   0.44853952     4.031792      -0.90656252   
    750000   0.45245376     4.0206593     -0.89244924   
    751000   0.44628946     3.9831612     -0.90092153   
    752000   0.44999355     4.072946      -0.89160813   
    753000   0.44735474     4.0198683     -0.91603262   
    754000   0.4492629      4.0073492     -0.98126463   
    755000   0.44960562     4.0064893     -0.86341597   
    756000   0.44364044     4.0843859     -0.90408751   
    757000   0.44716208     4.0355573     -0.90286663   
    758000   0.44802391     4.0499541     -1.0565782    
    759000   0.45130428     4.0666222     -0.88155924   
    760000   0.45441531     3.9996912     -0.8937628    
    761000   0.45356043     4.012734      -0.93132941   
    762000   0.45204339     4.0631033     -0.96586265   
    763000   0.45594205     3.9708571     -0.97325077   
    764000   0.44453549     4.0560285     -0.81167489   
    765000   0.44929415     4.0033698     -0.87857976   
    766000   0.44436023     4.0424853     -0.92027439   
    767000   0.45197946     4.0577377     -0.96685211   
    768000   0.45079393     4.0638112     -0.979225     
    769000   0.44923369     4.0193149     -0.92563663   
    770000   0.45375613     4.0109304     -0.9120803    
    771000   0.44852975     4.0559067     -0.87313378   
    772000   0.44905995     4.0579828     -0.86337918   
    773000   0.44925389     3.9729896     -0.92007305   
    774000   0.45403196     3.9980118     -0.79535783   
    775000   0.44996916     3.9933522     -0.91157851   
    776000   0.44973112     4.018665      -0.9402815    
    777000   0.447512       3.9828291     -0.98854034   
    778000   0.45353484     4.0033801     -0.80105805   
    779000   0.45123169     4.0176837     -0.84431582   
    780000   0.44974639     3.985384      -0.90037587   
    781000   0.45668712     3.9878767     -0.89361139   
    782000   0.45275452     3.9398993     -0.91544488   
    783000   0.44639129     4.0546746     -0.8114596    
    784000   0.44856804     4.0551945     -0.82494144   
    785000   0.45204595     4.027158      -0.89258292   
    786000   0.44575309     4.0085286     -0.89231825   
    787000   0.44737732     4.0499933     -0.89986707   
    788000   0.45292786     3.9703379     -0.86771388   
    789000   0.44931307     3.9731985     -0.89032724   
    790000   0.45033451     4.0325516     -0.86591103   
    791000   0.4487352      4.0281161     -0.87321928   
    792000   0.45117047     4.0906114     -1.0058023    
    793000   0.44583687     4.0453701     -0.90389844   
    794000   0.44925599     4.0554741     -0.86739728   
    795000   0.445159       4.0240115     -0.89336206   
    796000   0.45387225     4.0309573     -0.8881321    
    797000   0.450539       4.0134243     -0.95677616   
    798000   0.45028749     4.0169914     -0.90261193   
    799000   0.4506359      4.0213601     -0.8658289    
    800000   0.45349775     4.0582042     -0.89001062   
    801000   0.44433712     4.0423954     -0.8862253    
    802000   0.45137017     4.0757103     -0.93122687   
    803000   0.44866326     4.055975      -0.93262965   
    804000   0.45109319     4.0717184     -0.86600075   
    805000   0.44986275     4.0355835     -0.90419218   
    806000   0.4517886      4.0766316     -0.85673728   
    807000   0.44783568     4.0157203     -0.9247855    
    808000   0.45154754     3.9767542     -0.85686424   
    809000   0.45479925     4.0701595     -1.001723     
    810000   0.44876922     3.9953038     -0.93534787   
    811000   0.44793244     4.0422042     -0.94807309   
    812000   0.45061331     4.0701442     -0.83341201   
    813000   0.44808049     3.99318       -0.87872841   
    814000   0.45476859     4.030129      -0.92944177   
    815000   0.4485934      3.9446372     -0.91383363   
    816000   0.45108996     3.9958262     -0.94757517   
    817000   0.44370988     3.9487847     -0.87599429   
    818000   0.45510692     3.9907318     -0.9272897    
    819000   0.4501332      3.9957759     -0.95114158   
    820000   0.45308718     4.0372313     -0.88430733   
    821000   0.45211807     3.9731636     -0.93319981   
    822000   0.45101466     4.0193991     -0.93896513   
    823000   0.4503563      3.9971422     -0.88939071   
    824000   0.44889828     3.9891499     -0.85912624   
    825000   0.44992856     4.043643      -0.94431144   
    826000   0.45432393     4.0089785     -0.89088833   
    827000   0.45010709     3.9739496     -0.87911402   
    828000   0.44848365     4.0269056     -0.99630519   
    829000   0.44986074     4.0455113     -0.9356015    
    830000   0.44861577     4.00019       -0.92592961   
    831000   0.4510736      4.046678      -0.88616348   
    832000   0.45108339     3.9585836     -0.86369813   
    833000   0.45315225     3.9851437     -0.88992376   
    834000   0.45065347     4.0642574     -0.93776304   
    835000   0.44197297     4.0280552     -0.97968731   
    836000   0.45060458     3.9993737     -0.89241656   
    837000   0.4505692      4.0073709     -0.82633052   
    838000   0.44829589     4.0924062     -0.93312781   
    839000   0.45224581     3.9708162     -0.9353725    
    840000   0.44464306     4.0856161     -1.0623945    
    841000   0.4531027      4.0072866     -0.9269517    
    842000   0.44674654     4.0665344     -0.94617141   
    843000   0.44818345     4.033461      -0.88695192   
    844000   0.44759138     4.0371518     -0.8584301    
    845000   0.44595593     4.0477437     -0.86031589   
    846000   0.44966342     4.0110172     -0.88071265   
    847000   0.45383248     4.0455149     -0.90362194   
    848000   0.44582577     3.9998293     -0.88447573   
    849000   0.45054278     3.9624181     -0.86573743   
    850000   0.45110675     4.0004056     -0.96480601   
    851000   0.45031596     3.9908287     -0.83598995   
    852000   0.45249255     3.992994      -0.84544196   
    853000   0.44727722     4.0045974     -0.86209939   
    854000   0.45143207     4.0328819     -0.9578008    
    855000   0.44743405     3.9914158     -0.86974217   
    856000   0.4498102      3.9589973     -0.89772924   
    857000   0.44996922     3.9684454     -0.78683188   
    858000   0.44825501     3.9561275     -0.93173557   
    859000   0.45459043     4.0107619     -1.0082889    
    860000   0.45315888     3.9826463     -0.96019762   
    861000   0.45484359     4.0395235     -0.93263464   
    862000   0.44694708     4.0203073     -0.93417786   
    863000   0.44963104     4.0721096     -0.89466824   
    864000   0.44558612     4.0156047     -0.86218892   
    865000   0.45054809     4.0358662     -0.81622834   
    866000   0.45042427     4.0020024     -0.88910947   
    867000   0.45280131     3.9901773     -0.91003413   
    868000   0.44753706     4.0352495     -0.81748083   
    869000   0.45025987     3.9569747     -0.90294244   
    870000   0.45324949     4.0071469     -0.91651522   
    871000   0.44674523     4.0205327     -0.89759298   
    872000   0.44979844     4.0538578     -0.92254273   
    873000   0.44942764     4.073348      -0.9074486    
    874000   0.45128012     4.0074314     -0.88188137   
    875000   0.44760809     4.06477       -0.85645608   
    876000   0.44930566     3.9747835     -0.86711501   
    877000   0.45534396     4.0099638     -0.91937346   
    878000   0.44914985     4.0345658     -0.94065473   
    879000   0.45029928     4.0541901     -0.89300716   
    880000   0.44622784     4.0424747     -0.92529872   
    881000   0.45391633     4.0520422     -0.8447579    
    882000   0.44943929     4.0157483     -0.88166292   
    883000   0.44481413     4.0681752     -0.89523683   
    884000   0.45052957     4.0271868     -0.8650172    
    885000   0.4498357      4.0508686     -0.93695743   
    886000   0.45009266     3.9951686     -0.87233316   
    887000   0.44573516     4.0415018     -0.84095802   
    888000   0.45042907     3.9824639     -0.87914032   
    889000   0.44607508     4.0461089     -0.8231388    
    890000   0.45088168     4.0292882     -1.0297016    
    891000   0.45011577     4.0229602     -0.91862923   
    892000   0.45086306     4.072562      -0.95278495   
    893000   0.45117148     4.0466926     -0.97986201   
    894000   0.44759826     4.0001219     -0.8992443    
    895000   0.44634687     4.0421288     -0.82338182   
    896000   0.45300921     4.0674252     -0.93882038   
    897000   0.44923934     4.0281796     -0.92403899   
    898000   0.45088349     4.0225777     -0.82532389   
    899000   0.4466439      3.9697657     -0.84462644   
    900000   0.45301708     3.9861948     -0.96458402   
    901000   0.44971885     4.0224716     -0.92832915   
    902000   0.44932824     4.0224049     -0.99048217   
    903000   0.45070696     4.0073316     -1.0081271    
    904000   0.44465918     4.0162495     -0.93455871   
    905000   0.44836652     4.0216235     -0.96083986   
    906000   0.45215187     4.0540162     -0.95677752   
    907000   0.45240885     4.0192555     -0.92104162   
    908000   0.44731223     4.0004677     -0.89189681   
    909000   0.4488232      4.0466255     -0.83183247   
    910000   0.45317064     3.9789844     -0.90595612   
    911000   0.45158607     4.0207534     -0.93902871   
    912000   0.45481192     4.0146751     -0.98959175   
    913000   0.44893929     4.0306495     -0.93284152   
    914000   0.45057357     4.0463139     -0.88423997   
    915000   0.45038439     4.0741816     -0.87309365   
    916000   0.45031279     4.0462265     -0.95681344   
    917000   0.45048424     4.051553      -0.91772861   
    918000   0.44746302     4.0358459     -0.81159479   
    919000   0.44944948     3.9911015     -0.84393062   
    920000   0.45258596     3.9900839     -0.89160477   
    921000   0.44754692     4.0111281     -0.86263761   
    922000   0.44377259     3.9732542     -0.86536614   
    923000   0.44959809     3.9991051     -0.88016155   
    924000   0.45287375     4.0480633     -0.92229156   
    925000   0.44931996     4.0184369     -0.98509202   
    926000   0.45230229     3.9718395     -0.90690685   
    927000   0.45731148     3.9888905     -0.91276905   
    928000   0.45239489     3.9945611     -0.89089305   
    929000   0.44934956     4.0009728     -0.87144478   
    930000   0.45164748     4.0272874     -0.94982938   
    931000   0.44973211     4.0758294     -0.99609866   
    932000   0.45009585     4.030901      -0.9507532    
    933000   0.44872879     4.0285309     -0.90566941   
    934000   0.44677162     4.0538471     -0.8973636    
    935000   0.44668506     4.0281801     -0.88342378   
    936000   0.45147657     4.1067484     -0.87897251   
    937000   0.44701361     3.9675989     -0.85840517   
    938000   0.45063355     4.0011332     -0.92667917   
    939000   0.45071753     4.0613782     -0.93263701   
    940000   0.44992345     4.0246085     -0.856777     
    941000   0.44913468     4.0714543     -0.93116189   
    942000   0.44468288     4.046763      -0.89742867   
    943000   0.45189914     4.0568476     -0.96180596   
    944000   0.44564375     4.0532008     -0.85360514   
    945000   0.44791919     3.973189      -0.89459607   
    946000   0.44847314     4.039244      -0.89821528   
    947000   0.44682123     4.0286449     -0.86124882   
    948000   0.45276978     4.0204535     -0.89282022   
    949000   0.4454186      3.9817917     -0.88868905   
    950000   0.45641541     4.0073612     -0.89841845   
    951000   0.45325411     4.0348477     -0.93191942   
    952000   0.45720594     4.0150484     -0.97291843   
    953000   0.44981026     4.0352361     -0.93631715   
    954000   0.44897334     4.0676427     -0.90436255   
    955000   0.45256921     4.0207526     -0.93921065   
    956000   0.45241396     4.019624      -0.8553015    
    957000   0.44498931     4.0038737     -0.89878709   
    958000   0.4491369      4.0194468     -0.84286839   
    959000   0.45200217     4.0248462     -0.94347814   
    960000   0.44818513     4.0671948     -0.93695108   
    961000   0.44717986     4.0287755     -0.96922487   
    962000   0.45424362     4.0103234     -0.91767569   
    963000   0.44546256     4.0086509     -0.89788014   
    964000   0.45172667     4.0887679     -0.94808698   
    965000   0.44757371     3.9760749     -0.869334     
    966000   0.45223797     4.0443182     -0.89067052   
    967000   0.45348467     4.0224005     -0.84598507   
    968000   0.44799212     3.9493087     -0.88398089   
    969000   0.4497989      4.015632      -0.91256453   
    970000   0.44819451     4.0274329     -0.93208921   
    971000   0.45447584     4.1189686     -0.9171815    
    972000   0.44056973     3.9740923     -0.94833579   
    973000   0.45519768     4.0413369     -0.91253628   
    974000   0.4465354      3.9983006     -0.97565422   
    975000   0.4488059      4.0088763     -0.93773865   
    976000   0.45067273     3.9967114     -0.8705747    
    977000   0.45039309     3.9754832     -0.86608488   
    978000   0.44977525     4.0041547     -0.85488705   
    979000   0.44789748     3.9407975     -0.94571735   
    980000   0.44932537     3.976048      -0.92624998   
    981000   0.45133888     4.0189063     -0.87054766   
    982000   0.44598388     3.9451218     -0.92339774   
    983000   0.45056702     4.0242249     -0.92367479   
    984000   0.44826558     3.9839584     -1.0259813    
    985000   0.45415957     3.9785893     -0.88062412   
    986000   0.44784068     3.9963588     -0.99860621   
    987000   0.45245825     3.9963145     -0.93849438   
    988000   0.45022794     3.9340944     -0.90908816   
    989000   0.45351616     4.0178123     -0.87242887   
    990000   0.44704097     4.0049115     -0.95380481   
    991000   0.44965473     4.0407504     -0.93977832   
    992000   0.45248265     4.0109342     -0.86058827   
    993000   0.45046253     4.029983      -0.84520819   
    994000   0.45260117     3.9986416     -0.90850631   
    995000   0.45421992     3.9609361     -0.90498145   
    996000   0.45052999     4.0244047     -0.89025026   
    997000   0.45312225     4.037118      -0.94382648   
    998000   0.45253322     4.013123      -0.85941294   
    999000   0.44873585     3.9381286     -0.84530627   
   1000000   0.45715396     4.0484687     -0.92979476   
   1001000   0.45045726     3.9676708     -0.93861407   
   1002000   0.45037916     4.0657983     -0.88939282   
   1003000   0.45107646     3.9455985     -0.92311351   
   1004000   0.45739961     4.024576      -0.88622746   
   1005000   0.44996633     4.0124963     -0.95936433   
   1006000   0.44867974     4.0044979     -0.88489697   
   1007000   0.4545695      3.9930035     -0.78771957   
   1008000   0.44643588     3.9984538     -0.84265817   
   1009000   0.45253571     4.0037549     -0.88050154   
   1010000   0.45451181     4.0007727     -0.98716825   
   1011000   0.45089214     4.03304       -0.89898546   
   1012000   0.45092694     4.0544932     -0.89519716   
   1013000   0.44913442     4.0301792     -0.90123762   
   1014000   0.44992631     4.0459596     -0.85404379   
   1015000   0.44693547     4.0184317     -0.83919978   
   1016000   0.44700922     4.0326593     -0.82548353   
   1017000   0.45096443     3.9921163     -0.87913805   
   1018000   0.4469234      3.9679398     -0.92839858   
   1019000   0.44890317     3.9976095     -0.91401544   
   1020000   0.44480134     3.9909416     -0.85703373   
   1021000   0.45132116     3.9975377     -0.88603501   
   1022000   0.45054815     3.969641      -0.81850834   
   1023000   0.451125       4.0307989     -0.9275781    
   1024000   0.45165837     3.9927795     -0.92311306   
   1025000   0.45160303     3.9769873     -0.90625257   
   1026000   0.45437945     3.974101      -0.86103313   
   1027000   0.45255283     4.0258318     -0.84996822   
   1028000   0.44993881     3.9879397     -0.84698173   
   1029000   0.45230556     4.0400773     -0.77200607   
   1030000   0.45182993     4.0493487     -0.8284736    
   1031000   0.44986306     3.9593162     -0.78094425   
   1032000   0.45393758     4.0475156     -0.90611068   
   1033000   0.44580088     4.0025371     -0.86092854   
   1034000   0.45084475     4.0208922     -0.85065947   
   1035000   0.44551595     3.9604336     -0.87955869   
   1036000   0.44632368     4.0575726     -1.0017438    
   1037000   0.45223839     4.0316997     -0.93106744   
   1038000   0.45110178     3.9992401     -0.88219896   
   1039000   0.44334988     4.0269127     -0.92803951   
   1040000   0.45678204     4.0010557     -0.83776051   
   1041000   0.44812357     4.0122106     -0.89447847   
   1042000   0.44648138     3.9888957     -0.85456621   
   1043000   0.45662916     4.0437138     -0.98273058   
   1044000   0.448499       4.046047      -0.96323368   
   1045000   0.44849082     4.0355532     -0.91279936   
   1046000   0.44946802     4.0168923     -0.87483126   
   1047000   0.44662364     4.0026269     -0.89827609   
   1048000   0.45421529     4.055421      -0.90953373   
   1049000   0.44641132     4.0266357     -0.96523116   
   1050000   0.44780351     4.1015225     -0.92820272   
   1051000   0.44670407     3.9745317     -0.91867698   
   1052000   0.4510386      4.0178475     -0.91047986   
   1053000   0.4487748      4.06757       -0.87290243   
   1054000   0.44939391     4.0870383     -0.94846735   
   1055000   0.44861806     4.0726774     -0.90905924   
   1056000   0.44923553     4.0563702     -0.97372909   
   1057000   0.44910875     4.0083757     -0.94241269   
   1058000   0.45192657     4.0166224     -0.93239489   
   1059000   0.44762972     3.9884666     -0.90961242   
   1060000   0.44765826     4.0403511     -0.97760399   
   1061000   0.44068337     4.0395181     -0.95952078   
   1062000   0.45056449     4.0602485     -0.98711111   
   1063000   0.44824209     4.0572882     -0.93899338   
   1064000   0.44973396     4.045165      -0.96752402   
   1065000   0.45349814     4.0849887     -0.91031344   
   1066000   0.45186315     4.0570781     -0.90011692   
   1067000   0.44675209     3.995686      -0.93412741   
   1068000   0.45377401     4.0098516     -0.92626805   
   1069000   0.44759756     4.0154111     -0.89170072   
   1070000   0.45189275     4.0896914     -1.0189213    
   1071000   0.44977565     3.9888887     -1.0135243    
   1072000   0.45253827     3.9783215     -0.91264018   
   1073000   0.4508324      4.0109092     -0.91438285   
   1074000   0.44945047     4.036744      -0.84528092   
   1075000   0.45232397     4.0273991     -0.90388654   
   1076000   0.44881214     4.002595      -0.9799505    
   1077000   0.44715864     4.0013284     -0.97309565   
   1078000   0.44884893     3.9771208     -0.83840813   
   1079000   0.4517114      4.0487965     -0.94628083   
   1080000   0.45073488     4.0003837     -0.91818613   
   1081000   0.45365441     4.0079048     -0.94730259   
   1082000   0.44778294     4.009039      -0.8997038    
   1083000   0.45259049     4.0563847     -0.90345317   
   1084000   0.45071706     4.033899      -0.91756955   
   1085000   0.44880892     4.0313148     -0.84379683   
   1086000   0.44892003     3.9870692     -0.86569572   
   1087000   0.44791196     4.0271297     -0.92226545   
   1088000   0.45080356     4.0320512     -0.98731466   
   1089000   0.45223349     3.978256      -0.91257454   
   1090000   0.44716821     4.0338036     -0.96932361   
   1091000   0.45303032     3.9760495     -0.90839117   
   1092000   0.44601736     3.9366998     -0.89131255   
   1093000   0.44986503     4.0053587     -0.88552785   
   1094000   0.4483097      3.990598      -0.94902902   
   1095000   0.44827839     4.0931422     -0.94962024   
   1096000   0.44836943     4.0071233     -0.96688982   
   1097000   0.44898983     4.0310526     -0.95633586   
   1098000   0.44803977     4.0685546     -0.92664972   
   1099000   0.44600872     3.9363774     -0.86428508   
   1100000   0.44826866     4.0219587     -0.94150649   
   1101000   0.45146091     4.0010431     -0.90618834   
   1102000   0.44711825     3.9920665     -0.91582464   
   1103000   0.4497711      4.0367457     -0.95848223   
   1104000   0.45100579     3.9847782     -1.0055544    
   1105000   0.44766929     4.027639      -0.94216068   
   1106000   0.45351127     4.0502882     -0.92831917   
   1107000   0.44684448     4.0207397     -0.9302854    
   1108000   0.45037592     4.0013295     -0.82554171   
   1109000   0.45181693     4.0400961     -0.90359618   
   1110000   0.45190514     4.0434351     -1.0120206    
   1111000   0.45215192     4.0528455     -0.92942083   
   1112000   0.45003418     3.983973      -0.94892904   
   1113000   0.44888851     4.0096005     -0.90373496   
   1114000   0.44762108     4.0235331     -0.92653762   
   1115000   0.45522181     4.0386396     -0.99225358   
   1116000   0.45591039     4.0649874     -0.96495926   
   1117000   0.44609024     4.0552845     -0.87427233   
   1118000   0.4465275      4.0549259     -0.91438625   
   1119000   0.45109636     4.0583955     -0.81242855   
   1120000   0.44832119     3.9668046     -0.90367807   
   1121000   0.45295435     3.9964427     -0.88146179   
   1122000   0.45181026     3.9439303     -0.91703828   
   1123000   0.45151882     4.0028366     -0.89899244   
   1124000   0.44857933     4.0534846     -0.87783089   
   1125000   0.44756563     4.0248913     -0.93833916   
   1126000   0.44814245     4.0251684     -0.93306984   
   1127000   0.45060249     4.0628562     -0.81085602   
   1128000   0.44955001     4.0492308     -0.88869735   
   1129000   0.44370316     3.9924275     -0.87358118   
   1130000   0.452188       4.0857276     -0.91040849   
   1131000   0.44674816     4.0233905     -0.96665934   
   1132000   0.45137027     4.0315206     -0.91511552   
   1133000   0.44989241     4.0932121     -0.88494936   
   1134000   0.45310083     4.0814576     -0.95793046   
   1135000   0.44978342     4.0440627     -0.90496145   
   1136000   0.45005821     3.9906383     -0.807386     
   1137000   0.4460444      4.0227227     -0.89075125   
   1138000   0.45196587     3.9844212     -0.82328691   
   1139000   0.4502457      4.0162776     -0.88708333   
   1140000   0.45559657     4.0401056     -0.87847734   
   1141000   0.44502098     3.9703399     -0.8386931    
   1142000   0.45229018     3.9917705     -0.88372414   
   1143000   0.45107017     3.9686063     -0.94165512   
   1144000   0.45177431     4.0020922     -0.96291366   
   1145000   0.45240359     3.9812819     -0.81393273   
   1146000   0.44783181     3.9487167     -0.80260942   
   1147000   0.45030338     4.033941      -0.84427868   
   1148000   0.45235008     3.9402492     -0.97008149   
   1149000   0.4496577      4.0245877     -0.90415769   
   1150000   0.45048316     4.0169522     -0.83451481   
   1151000   0.45109713     4.0213224     -0.82760459   
   1152000   0.44803664     4.0461917     -0.9436193    
   1153000   0.45102658     4.0433601     -0.90338455   
   1154000   0.4508403      4.023035      -0.94910302   
   1155000   0.4510695      3.978219      -0.94818812   
   1156000   0.44941567     4.0266112     -0.92258147   
   1157000   0.45218504     4.0061502     -0.83911706   
   1158000   0.44757382     4.0132776     -0.89366505   
   1159000   0.45369935     3.9710007     -0.89189664   
   1160000   0.4479709      4.0034816     -0.91109498   
   1161000   0.45119032     3.9592873     -0.96685035   
   1162000   0.45049521     4.0446974     -0.98325692   
   1163000   0.44839615     4.0259697     -0.95835949   
   1164000   0.45719858     4.0626863     -0.93190556   
   1165000   0.45164738     4.0382287     -0.95073706   
   1166000   0.45207187     4.1502228     -0.92425265   
   1167000   0.44554759     4.0287415     -0.95617645   
   1168000   0.44938041     3.979845      -0.88332559   
   1169000   0.44348101     3.9375105     -0.91263578   
   1170000   0.45309853     4.0132842     -0.95174605   
   1171000   0.45369294     3.9745718     -0.91446428   
   1172000   0.44495906     4.0531476     -0.96169276   
   1173000   0.44760106     4.0206386     -0.9561142    
   1174000   0.44911706     4.0203646     -0.89015167   
   1175000   0.45450522     4.0376095     -0.92112442   
   1176000   0.44828084     4.0235743     -0.8755127    
   1177000   0.44906559     3.9674908     -0.91273617   
   1178000   0.44641652     3.9598551     -0.89799149   
   1179000   0.45013853     4.000046      -0.90268116   
   1180000   0.44868128     4.0217086     -1.0014149    
   1181000   0.44928668     4.0137538     -0.89297712   
   1182000   0.44881377     3.9897714     -0.93524349   
   1183000   0.45086397     4.0114737     -0.97390165   
   1184000   0.44983818     4.0147065     -0.85728846   
   1185000   0.45315398     3.9575949     -0.93478155   
   1186000   0.44830015     4.0505217     -0.96051256   
   1187000   0.44891722     4.0049496     -1.0192192    
   1188000   0.45363523     3.9919757     -0.8483858    
   1189000   0.44999692     3.9607207     -0.915286     
   1190000   0.45269591     4.0481456     -0.89549818   
   1191000   0.44855687     4.0136486     -0.86206394   
   1192000   0.44885199     3.9984798     -0.89703311   
   1193000   0.44868688     3.9700567     -0.9159502    
   1194000   0.44849804     4.0388433     -0.85249556   
   1195000   0.44739789     4.0476713     -0.87678267   
   1196000   0.44956335     4.0366391     -0.91705578   
   1197000   0.45102761     4.0053112     -0.84848843   
   1198000   0.44533036     4.0124227     -0.91246013   
   1199000   0.45164602     3.9786725     -0.92103292   
   1200000   0.44574279     3.9774266     -0.97334114   
   1201000   0.45154385     4.0310179     -0.94970605   
   1202000   0.44690781     4.0524046     -0.91363101   
   1203000   0.444508       4.0340807     -0.92788163   
   1204000   0.45194628     4.0402279     -0.96543411   
   1205000   0.44629405     4.0072305     -0.87464171   
   1206000   0.45063362     3.9845248     -0.92210814   
   1207000   0.44895005     4.034037      -0.89775577   
   1208000   0.44875044     3.9769152     -0.91125904   
   1209000   0.44783272     4.0129493     -0.92931648   
   1210000   0.45279253     4.0035906     -0.91558372   
   1211000   0.45599728     4.0735691     -0.92175488   
   1212000   0.45116876     3.9906073     -0.88864394   
   1213000   0.4548572      4.0977966     -0.91477342   
   1214000   0.44923558     4.0371421     -0.95069445   
   1215000   0.44638313     3.9791626     -0.87208383   
   1216000   0.4501576      4.0232364     -0.83819451   
   1217000   0.44487238     4.0066242     -0.89381781   
   1218000   0.45056373     4.0078333     -0.94295332   
   1219000   0.44467557     3.9868602     -0.86608577   
   1220000   0.44755522     3.9766182     -0.92784754   
   1221000   0.45174506     4.0298371     -0.8559108    
   1222000   0.44466141     4.0064328     -0.89848838   
   1223000   0.45274272     4.0536515     -0.96231523   
   1224000   0.44679737     4.0441008     -0.88926338   
   1225000   0.44606927     4.0000844     -0.86751882   
   1226000   0.4471712      4.0350009     -0.89149935   
   1227000   0.4490771      4.0175648     -0.93245917   
   1228000   0.45047839     3.9987218     -0.85716334   
   1229000   0.44562563     3.9683285     -0.91840569   
   1230000   0.45392393     3.9693008     -0.93675624   
   1231000   0.45113575     3.9493151     -0.95835638   
   1232000   0.45229419     3.9266623     -0.97188658   
   1233000   0.45091411     4.0238283     -0.96922946   
   1234000   0.44835965     3.9166479     -0.930556     
   1235000   0.45136987     3.9549747     -0.89757948   
   1236000   0.45361955     4.0109973     -0.98830029   
   1237000   0.44961483     4.0328185     -0.88722702   
   1238000   0.44842729     3.9871866     -0.93723313   
   1239000   0.44790523     3.9941715     -0.88371637   
   1240000   0.45059495     4.0468358     -0.86420417   
   1241000   0.45074814     4.0095756     -0.87707559   
   1242000   0.45086722     4.0239776     -0.93805834   
   1243000   0.44912249     4.050524      -0.93578299   
   1244000   0.45017348     4.008353      -0.92700597   
   1245000   0.45147847     4.0297183     -0.86918343   
   1246000   0.45089565     3.9440606     -0.93292375   
   1247000   0.4524884      4.0243694     -0.89555709   
   1248000   0.45399906     4.0443235     -0.89738458   
   1249000   0.44665653     4.0286583     -0.87525507   
   1250000   0.44911699     4.0885366     -1.0029589    
   1251000   0.45592871     4.0227657     -0.93382121   
   1252000   0.44810537     4.0773808     -0.82820566   
   1253000   0.44595584     3.9795806     -0.90663218   
   1254000   0.45331816     4.0071786     -0.85572928   
   1255000   0.44985273     3.9901142     -0.90667486   
   1256000   0.44836249     3.971221      -0.90310094   
   1257000   0.45294053     3.9318961     -0.89621288   
   1258000   0.44878684     3.9526258     -0.92992038   
   1259000   0.45190321     3.9831342     -0.97547799   
   1260000   0.44936949     4.0497445     -0.9491056    
   1261000   0.44789975     4.0205352     -0.87628616   
   1262000   0.44968613     4.0253272     -0.907352     
   1263000   0.44998882     4.0158892     -0.91778984   
   1264000   0.4550761      4.0199125     -0.84231012   
   1265000   0.44846638     4.0236774     -0.92039343   
   1266000   0.4490804      4.0252849     -0.90860061   
   1267000   0.44854631     3.9885196     -0.9458865    
   1268000   0.45310767     4.0423294     -1.0021228    
   1269000   0.45325108     4.0354316     -0.96895951   
   1270000   0.45056225     4.0359953     -0.96005645   
   1271000   0.45115635     4.0269514     -0.95444509   
   1272000   0.45331837     4.0608719     -0.90756152   
   1273000   0.45385664     4.0226968     -0.91093934   
   1274000   0.44904444     3.9863054     -0.86475924   
   1275000   0.45217215     4.0310144     -0.91708519   
   1276000   0.44882356     4.0039399     -0.89435086   
   1277000   0.44910006     4.0623234     -0.97542694   
   1278000   0.45220398     4.0199968     -0.91785754   
   1279000   0.4494567      4.0299952     -0.94174509   
   1280000   0.45224288     4.0314377     -0.9669778    
   1281000   0.44902595     4.1120049     -0.9807535    
   1282000   0.45364738     4.006508      -0.94442982   
   1283000   0.45211237     4.0719495     -0.88749977   
   1284000   0.44959636     4.0235653     -0.98509667   
   1285000   0.45027533     3.9877779     -0.91588941   
   1286000   0.45137191     4.0795072     -0.90068295   
   1287000   0.44964567     4.012541      -0.88996828   
   1288000   0.45364089     4.0457069     -1.030278     
   1289000   0.45427986     4.0760987     -0.9841071    
   1290000   0.45200299     3.9867619     -0.94747603   
   1291000   0.4465309      4.0790566     -0.84808815   
   1292000   0.4515254      3.9994656     -0.92934187   
   1293000   0.4506901      3.9831042     -0.95556832   
   1294000   0.45229249     4.0221312     -0.91485365   
   1295000   0.4420641      4.0381161     -0.89060512   
   1296000   0.45251803     4.0486414     -0.94080067   
   1297000   0.44999934     4.035611      -0.86709496   
   1298000   0.44911643     3.9831657     -0.91055039   
   1299000   0.45085868     4.0410724     -0.86003163   
   1300000   0.44955338     3.9842455     -0.85720809   
   1301000   0.45356        4.04352       -0.94722903   
   1302000   0.44935889     3.9953509     -0.92517315   
   1303000   0.45393165     3.9889858     -0.89440724   
   1304000   0.44733511     4.0333545     -0.87647674   
   1305000   0.45033433     4.006683      -0.84783321   
   1306000   0.44493566     3.9863762     -1.0014756    
   1307000   0.44649456     4.0662786     -0.85392037   
   1308000   0.44951206     4.0461089     -0.90118533   
   1309000   0.44957192     4.0293204     -0.90997519   
   1310000   0.45144559     4.0456998     -0.90135747   
   1311000   0.44702766     4.0291573     -0.8809183    
   1312000   0.4456134      4.0260817     -0.86001296   
   1313000   0.45001898     4.0759178     -0.89188368   
   1314000   0.45200618     4.0597141     -0.8811617    
   1315000   0.4530824      4.0240333     -0.9413016    
   1316000   0.44533058     4.0837088     -0.87791432   
   1317000   0.44482032     3.9961284     -0.8909352    
   1317667   0.4521127      4.0236581     -0.91733057   
Loop time of 1235.41 on 22 procs for 666667 steps with 16500 atoms

Performance: 46624.051 tau/day, 539.630 timesteps/s, 8.904 Matom-step/s
91.8% CPU use with 22 MPI tasks x 1 OpenMP threads

MPI task timing breakdown:
Section |  min time  |  avg time  |  max time  |%varavg| %total
---------------------------------------------------------------
Pair    | 523.57     | 539.63     | 559.69     |  46.2 | 43.68
Neigh   | 117.02     | 118.6      | 121.07     |   8.8 |  9.60
Comm    | 364.37     | 384.46     | 402.85     |  48.3 | 31.12
Output  | 0.12635    | 0.13661    | 0.17707    |   2.5 |  0.01
Modify  | 118.37     | 130.03     | 146.16     |  75.1 | 10.53
Other   |            | 62.56      |            |       |  5.06

Nlocal:            750 ave         769 max         735 min
Histogram: 4 0 3 2 3 5 1 2 1 1
Nghost:        4104.18 ave        4138 max        4070 min
Histogram: 2 2 2 1 2 5 2 3 0 3
Neighs:          41234 ave       42633 max       39862 min
Histogram: 1 0 4 1 6 2 4 2 1 1

Total # of neighbors = 907149
Ave neighs/atom = 54.978727
Neighbor list builds = 17779
Dangerous builds = 0

# ===========================
# RESET STEP COUNTER
# ===========================
# Production data starts cleanly at step 0.
# fix deform and fix sllod_nvt continue uninterrupted.
reset_timestep  0

# ===========================
# PRODUCTION OUTPUT SETUP
# ===========================
# All output fixes are defined AFTER reset_timestep so step numbers in output
# files run from 0 to N_prod.

# --- Equal-style variables for fix ave/time ---
# These are evaluated at sample time by fix ave/time.
# Note: variable names chosen to avoid confusion with LAMMPS keywords.
variable  samp_step  equal  step
variable  samp_time  equal  time
variable  samp_temp  equal  c_Tdeform
variable  samp_press equal  c_Pdeform
variable  samp_pxy   equal  c_Pdeform[4]
variable  samp_npxy  equal  -c_Pdeform[4]    # -P_xy for viscosity: eta = (-P_xy)/gamma_dot
variable  samp_gamma equal  ${SHEAR_RATE}*time
variable  samp_gamma equal  0.030*time

# ===========================
# PRODUCTION RUN (Delta_gamma = 50)
# ===========================
print "=========================================="
==========================================
print "PRODUCTION RUN"
PRODUCTION RUN
print "  gamma_dot    = ${SHEAR_RATE}"
  gamma_dot    = 0.030
print "  N_prod steps = ${N_prod}  (strain = 50)"
  N_prod steps = 1666667  (strain = 50)
print "  dump_every   = ${DUMP_EVERY}  steps"
  dump_every   = 667  steps
print "=========================================="
==========================================

# --- 前 2000 步密集 dump，用于 MSD 平台检测 ---
# Δt_fine = 10 × dt = 0.05 τ₀，覆盖 ballistic→plateau 转变
# 总时间 = 2000 × dt，足以看到平台
# 注意：fix ave/time 不在此处定义，避免触发 time-dependent fix 限制
dump  msd_fine  all  custom  10       dump.fine_${SHEAR_RATE}.lammpstrj       id  type  x  y  z  ix  iy  iz
dump  msd_fine  all  custom  10       dump.fine_0.030.lammpstrj       id  type  x  y  z  ix  iy  iz
dump_modify  msd_fine  sort  id  flush  yes

run   2000
Generated 0 of 1 mixed pair_coeff terms from geometric mixing rule
Per MPI rank memory allocation (min/avg/max) = 3.328 | 3.33 | 3.333 Mbytes
   Step       c_Tdeform      c_Pdeform     c_Pdeform[4] 
         0   0.4521127      4.0238364     -0.91887465   
      1000   0.45324595     4.0487681     -1.0322457    
      2000   0.45301921     3.9820349     -0.97615545   
Loop time of 4.82518 on 22 procs for 2000 steps with 16500 atoms

Performance: 35812.171 tau/day, 414.493 timesteps/s, 6.839 Matom-step/s
93.9% CPU use with 22 MPI tasks x 1 OpenMP threads

MPI task timing breakdown:
Section |  min time  |  avg time  |  max time  |%varavg| %total
---------------------------------------------------------------
Pair    | 1.5903     | 1.6648     | 1.7924     |   3.4 | 34.50
Neigh   | 0.344      | 0.35089    | 0.35878    |   0.7 |  7.27
Comm    | 1.0633     | 1.1401     | 1.2399     |   3.6 | 23.63
Output  | 0.56199    | 0.86822    | 1.1702     |  19.5 | 17.99
Modify  | 0.29296    | 0.35264    | 0.41416    |   7.5 |  7.31
Other   |            | 0.4485     |            |       |  9.30

Nlocal:            750 ave         768 max         725 min
Histogram: 1 1 0 3 2 5 3 3 2 2
Nghost:         4112.5 ave        4136 max        4071 min
Histogram: 1 0 2 2 1 2 1 6 4 3
Neighs:          41210 ave       42324 max       39391 min
Histogram: 1 0 1 1 3 5 1 5 3 2

Total # of neighbors = 906621
Ave neighs/atom = 54.946727
Neighbor list builds = 53
Dangerous builds = 0

undump  msd_fine
reset_timestep  0   # 现在开始"真正 production 输出"，所有文件时间轴只出现一次
# 注意：fix ave/time (file_thermo, file_visc) 必须在 reset_timestep 之后定义，
#       否则 LAMMPS 报错：Cannot reset timestep with time-dependent fix ave/time defined

# --- Thermo output to file: instantaneous values every 100 steps ---
# Nevery=100, Nrepeat=1, Nfreq=100
# => sample at steps 100, 200, 300, ... (instantaneous, not averaged)
# Used by compute_viscosity.py to calculate steady-state eta.
fix  file_thermo  all  ave/time  100  1  100      v_samp_time  v_samp_gamma  v_samp_temp  v_samp_press  v_samp_pxy      file  thermo.shear_${SHEAR_RATE}.dat      title1  "# Inst thermo (SLLOD-consistent): gdot=${SHEAR_RATE} T=0.45 dt=${DT}"      title2  "# time  gamma  temp  press  pxy"
fix  file_thermo  all  ave/time  100  1  100      v_samp_time  v_samp_gamma  v_samp_temp  v_samp_press  v_samp_pxy      file  thermo.shear_0.030.dat      title1  "# Inst thermo (SLLOD-consistent): gdot=${SHEAR_RATE} T=0.45 dt=${DT}"      title2  "# time  gamma  temp  press  pxy"

# --- Block-averaged -P_xy for viscosity estimation ---
# Nevery=1, Nrepeat=100, Nfreq=100
# => average over consecutive 100-step blocks; output every 100 steps.
# eta_block = (-P_xy block average) / gamma_dot
fix  file_visc  all  ave/time  1  100  100      v_samp_time  v_samp_npxy      file  visc_blockave.shear_${SHEAR_RATE}.dat      title1  "# Block-averaged -<P_xy>: gamma_dot=${SHEAR_RATE}"      title2  "# time  -pxy_block100"
fix  file_visc  all  ave/time  1  100  100      v_samp_time  v_samp_npxy      file  visc_blockave.shear_0.030.dat      title1  "# Block-averaged -<P_xy>: gamma_dot=${SHEAR_RATE}"      title2  "# time  -pxy_block100"

# --- Atom trajectory dump (production) ---
# Output: id type x y z xu yu zu vx vy vz for all atoms
# xu/yu/zu = unwrapped coordinates (省去 Python 端手动 unwrap)
# Frequency: every DUMP_EVERY steps = 0.5/gamma_dot time units
# => ~100 snapshots per strain unit during production (strain=50 => ~5000 frames)
# Used by compute_msd_nonaffine.py and cage_jump_detection.py
dump  atom_traj  all  custom  ${DUMP_EVERY}       dump.shear_${SHEAR_RATE}.lammpstrj       id  type  x  y  z  xu  yu  zu  vx  vy  vz
dump  atom_traj  all  custom  667       dump.shear_${SHEAR_RATE}.lammpstrj       id  type  x  y  z  xu  yu  zu  vx  vy  vz
dump  atom_traj  all  custom  667       dump.shear_0.030.lammpstrj       id  type  x  y  z  xu  yu  zu  vx  vy  vz

dump_modify  atom_traj  sort  id  flush  yes

run  ${N_prod}
run  1666667
Generated 0 of 1 mixed pair_coeff terms from geometric mixing rule
Per MPI rank memory allocation (min/avg/max) = 3.328 | 3.33 | 3.333 Mbytes
   Step       c_Tdeform      c_Pdeform     c_Pdeform[4] 
         0   0.45301921     3.9822125     -0.97766624   
      1000   0.44551122     4.0455753     -0.94862054   
      2000   0.45145362     4.0239697     -0.96293429   
      3000   0.4462015      4.0669558     -0.95200125   
      4000   0.44810253     4.0666849     -0.9364025    
      5000   0.4450188      4.0284792     -0.86616904   
      6000   0.45094665     3.9984365     -0.94567698   
      7000   0.4497255      4.0242761     -0.86696385   
      8000   0.44946226     4.0030641     -0.92731756   
      9000   0.45255014     4.0221394     -0.82920108   
     10000   0.45025421     3.9827829     -0.8413492    
     11000   0.45009908     4.0012866     -0.88141918   
     12000   0.45358456     4.0302599     -0.95552005   
     13000   0.44936524     3.9796128     -0.90190842   
     14000   0.45088493     4.0778497     -0.91063989   
     15000   0.4536698      3.986383      -0.88701388   
     16000   0.44860206     3.9861621     -0.88079548   
     17000   0.45193319     4.0611602     -0.92009271   
     18000   0.4503193      4.0273579     -0.83338045   
     19000   0.45412452     4.0356967     -0.8982398    
     20000   0.45133951     4.0425624     -0.91179706   
     21000   0.44738943     3.9506376     -0.84828287   
     22000   0.45127745     3.9966195     -0.85345954   
     23000   0.45021044     4.0116563     -0.87373311   
     24000   0.44880256     4.0278708     -0.85590508   
     25000   0.44783481     4.0377587     -0.87191211   
     26000   0.44813088     4.0301266     -0.89369969   
     27000   0.44951772     4.0407294     -0.92893068   
     28000   0.44987853     4.0234399     -0.86500184   
     29000   0.44870149     4.0607463     -0.85353537   
     30000   0.44986786     4.0032623     -0.88073094   
     31000   0.44716153     3.9932539     -0.86059804   
     32000   0.44721651     4.029213      -0.92809142   
     33000   0.44622967     4.0500445     -0.8943429    
     34000   0.45049975     3.9827159     -0.86759187   
     35000   0.44508803     4.0370539     -0.80830139   
     36000   0.44819109     4.038974      -0.81736936   
     37000   0.45131693     4.0585733     -0.88634325   
     38000   0.44958975     4.0656553     -0.92138174   
     39000   0.44831944     4.0121495     -0.89278169   
     40000   0.44961477     4.0154333     -0.84528422   
     41000   0.45002738     4.0085217     -0.90017074   
     42000   0.44847935     4.0101061     -0.84931452   
     43000   0.45023428     4.037018      -0.82325689   
     44000   0.4507171      4.0588217     -0.86388593   
     45000   0.44438738     3.9894018     -0.82476209   
     46000   0.45145813     4.0321581     -0.88960344   
     47000   0.4474484      3.9872059     -0.8777233    
     48000   0.44960806     4.0118847     -0.88149357   
     49000   0.45518908     3.983101      -0.86757707   
     50000   0.44475091     4.0190582     -0.9464049    
     51000   0.45137426     3.9825538     -0.88349455   
     52000   0.45491734     4.0534472     -0.9100918    
     53000   0.44747375     3.9492878     -0.88329083   
     54000   0.44792236     4.0494148     -0.95088776   
     55000   0.44922237     4.0176574     -0.95371176   
     56000   0.45222178     4.0139186     -0.91991567   
     57000   0.45022176     4.0620892     -0.83495287   
     58000   0.45362541     4.000001      -0.81925824   
     59000   0.44911281     4.027514      -0.81775534   
     60000   0.45228273     3.9838162     -0.90638774   
     61000   0.45009323     4.0128795     -0.8688592    
     62000   0.45025066     4.0304999     -0.92205254   
     63000   0.4522218      4.0061528     -0.92388962   
     64000   0.45242274     4.046335      -0.97201632   
     65000   0.44669056     4.082977      -0.98371296   
     66000   0.44757005     4.0465248     -0.97649709   
     67000   0.44949933     4.0133102     -0.92246677   
     68000   0.44851165     4.0346452     -0.89339671   
     69000   0.45423028     4.0030199     -0.82278789   
     70000   0.44528063     4.0729995     -0.85710968   
     71000   0.44939814     4.0299739     -0.88825149   
     72000   0.45129399     4.0473193     -0.94057606   
     73000   0.44990095     4.0639577     -0.83539161   
     74000   0.44269676     4.0863096     -0.92764076   
     75000   0.45183034     4.0478446     -0.9776961    
     76000   0.44916869     4.034107      -0.93653901   
     77000   0.45154613     4.0641348     -0.81739042   
     78000   0.45020598     4.0519508     -0.93215444   
     79000   0.45055444     4.0431267     -0.88517845   
     80000   0.45257194     4.0299638     -0.93782066   
     81000   0.44334814     4.0292418     -0.90470622   
     82000   0.44694314     3.998137      -0.91328842   
     83000   0.45283539     4.078925      -0.97139193   
     84000   0.44912955     4.0078948     -0.85202387   
     85000   0.45562585     4.0071527     -0.81691332   
     86000   0.44833666     4.0034671     -0.87318397   
     87000   0.44984259     4.0214308     -0.91463086   
     88000   0.45141144     4.0213299     -0.92040788   
     89000   0.45355335     4.0028637     -0.89922268   
     90000   0.45185195     4.0002742     -0.84285202   
     91000   0.44902031     4.0022856     -0.92114943   
     92000   0.44785481     4.0282237     -0.89274237   
     93000   0.45000525     4.0435057     -0.94065472   
     94000   0.45302514     4.0272601     -0.93781981   
     95000   0.44270425     4.0366045     -0.96590812   
     96000   0.45247383     4.0456383     -0.87507685   
     97000   0.4486894      4.0146844     -0.8573471    
     98000   0.44915626     4.0455194     -0.86592194   
     99000   0.4511185      4.0455428     -0.94251954   
    100000   0.44930561     3.9663376     -0.87096147   
    101000   0.45136323     3.971199      -0.88849296   
    102000   0.4447388      3.9935025     -0.94515526   
    103000   0.45057468     3.9650808     -0.86679756   
    104000   0.45119696     4.041701      -0.94271943   
    105000   0.44718599     3.9606494     -0.85363297   
    106000   0.45144238     3.9803572     -0.85274534   
    107000   0.44858503     3.999219      -0.94330611   
    108000   0.45137082     4.0008251     -0.89368787   
    109000   0.45101792     3.9899684     -0.84236855   
    110000   0.45200054     3.9693712     -0.8603939    
    111000   0.44982996     3.9963991     -0.87682673   
    112000   0.44596414     3.9753671     -0.91100723   
    113000   0.44854427     3.9313705     -0.84435926   
    114000   0.45062551     3.9454142     -0.88322796   
    115000   0.4425844      3.98878       -0.87433349   
    116000   0.45552111     4.0188252     -0.93333445   
    117000   0.44613386     3.9662858     -0.88038995   
    118000   0.45070369     4.0056869     -0.88144373   
    119000   0.4542324      3.9299631     -0.88824036   
    120000   0.4505249      4.0197991     -0.9706056    
    121000   0.4452845      4.0103516     -0.94639341   
    122000   0.45127337     4.004399      -0.84700853   
    123000   0.44769612     3.9399187     -0.85791827   
    124000   0.45214245     3.9987146     -0.92232032   
    125000   0.45394457     3.9966636     -0.78716631   
    126000   0.45308986     3.9793038     -0.87843474   
    127000   0.44972574     3.9880077     -0.93245933   
    128000   0.45290829     4.0302277     -0.94848055   
    129000   0.44691195     4.0469287     -0.86383502   
    130000   0.448998       4.0115038     -0.92552806   
    131000   0.45070888     4.0387164     -0.89547907   
    132000   0.44807573     3.9691549     -0.99538147   
    133000   0.45198919     3.9990911     -0.96733364   
    134000   0.44997842     4.0583915     -0.90253588   
    135000   0.45031694     4.0818492     -0.91506049   
    136000   0.45002806     4.0427992     -1.0275526    
    137000   0.45074066     4.0391993     -0.9494647    
    138000   0.44647276     4.0479465     -0.83500926   
    139000   0.44839763     4.0456834     -0.96662824   
    140000   0.45374263     4.0594669     -0.94039327   
    141000   0.45255631     4.0706371     -0.89704603   
    142000   0.4506183      4.0548028     -0.98173396   
    143000   0.44368095     3.9750175     -0.88237144   
    144000   0.44550036     3.9937022     -0.92131243   
    145000   0.45186469     3.9996918     -0.93402382   
    146000   0.448962       4.0120737     -0.89257005   
    147000   0.45316212     4.0192797     -0.96003896   
    148000   0.4515878      3.9978715     -0.86980952   
    149000   0.44569496     4.0158906     -0.9307402    
    150000   0.45203999     4.0402301     -0.9123736    
    151000   0.44791843     3.9905718     -0.83294446   
    152000   0.45702595     4.030972      -0.86307586   
    153000   0.45141809     3.9896892     -0.91384807   
    154000   0.45208748     3.9945036     -0.91396671   
    155000   0.45087255     4.0442993     -0.86819146   
    156000   0.4472609      3.9653751     -0.82100774   
    157000   0.45426014     4.052484      -0.8570056    
    158000   0.45155001     4.0389272     -0.8377173    
    159000   0.4522642      4.0437137     -0.82909291   
    160000   0.44832997     3.9869198     -1.0398977    
    161000   0.44715322     3.9867952     -0.82640751   
    162000   0.45494274     4.0337368     -0.88875375   
    163000   0.44585845     4.0265031     -0.9444967    
    164000   0.44858812     3.9944195     -0.93064956   
    165000   0.4548249      4.0599566     -1.0158974    
    166000   0.44452655     3.9652815     -0.87114771   
    167000   0.45405352     4.0021706     -0.90612736   
    168000   0.45008543     4.0251173     -0.92002698   
    169000   0.45255089     3.9772992     -0.90872551   
    170000   0.45202156     4.0141478     -0.98049782   
    171000   0.45355576     4.0671618     -1.016236     
    172000   0.44907406     4.0329697     -0.98200756   
    173000   0.45189423     4.1014175     -0.85506713   
    174000   0.45404034     4.0193999     -0.88529702   
    175000   0.45241906     4.0485963     -0.81307009   
    176000   0.45004016     4.026951      -0.9077359    
    177000   0.44957249     4.0347881     -0.92218859   
    178000   0.44674878     4.0363967     -0.93190304   
    179000   0.44375334     4.0361087     -0.89948393   
    180000   0.45023563     4.0406964     -0.84035243   
    181000   0.45057133     4.0482559     -0.84714974   
    182000   0.44825772     4.0373227     -0.94811642   
    183000   0.44758446     4.0038656     -0.98958711   
    184000   0.45138499     4.0439122     -0.88235448   
    185000   0.45106244     4.0487648     -0.89279753   
    186000   0.45019724     4.0248357     -0.8990587    
    187000   0.44599136     4.0273265     -0.92507248   
    188000   0.44998502     4.0587544     -1.0427254    
    189000   0.4505176      4.0207681     -0.89889628   
    190000   0.451873       3.980451      -0.85930174   
    191000   0.45278025     4.0105672     -0.89390426   
    192000   0.4559796      3.9864391     -0.86834087   
    193000   0.44716974     3.9940494     -0.95745457   
    194000   0.45232396     4.0281757     -0.9352174    
    195000   0.44847461     3.9936062     -0.87470105   
    196000   0.44411376     4.0501228     -0.87400727   
    197000   0.45018763     4.0297014     -0.89205717   
    198000   0.44856066     3.9871099     -0.94298168   
    199000   0.44649429     4.0294169     -0.91862053   
    200000   0.45273495     3.9898257     -0.86146183   
    201000   0.44885094     3.9904955     -0.8907908    
    202000   0.44968742     4.0083428     -0.92248573   
    203000   0.4499662      4.0354305     -0.96797616   
    204000   0.45316485     4.0938781     -0.94365352   
    205000   0.44918827     4.0749111     -0.88104776   
    206000   0.44660879     4.0646452     -0.88477886   
    207000   0.44709215     4.0172287     -0.90151492   
    208000   0.45138981     4.0701827     -0.87523871   
    209000   0.44926031     4.020182      -0.89661382   
    210000   0.45507739     4.0171553     -0.86652506   
    211000   0.45260357     4.037915      -0.93664568   
    212000   0.44792087     4.0254179     -1.0181458    
    213000   0.45009149     4.0562521     -0.95951449   
    214000   0.45155358     4.0418144     -0.97712871   
    215000   0.44943423     4.0220286     -0.90061109   
    216000   0.44897698     4.0348087     -0.86220176   
    217000   0.45114769     4.0432421     -1.0123584    
    218000   0.44856033     4.0081215     -0.84753287   
    219000   0.44822571     4.0481734     -0.91938181   
    220000   0.45385717     4.0312618     -0.95304999   
    221000   0.45221692     4.0801193     -0.88942376   
    222000   0.45262071     4.062138      -0.97497658   
    223000   0.44786464     4.0865609     -0.91303674   
    224000   0.45221772     4.0418017     -0.98290373   
    225000   0.44844985     4.0260216     -0.96757541   
    226000   0.44921498     3.9961444     -0.93902451   
    227000   0.45053533     4.0582225     -0.9896112    
    228000   0.44676906     4.0204722     -0.99132296   
    229000   0.44710137     4.071078      -0.91558285   
    230000   0.45106183     4.0077991     -0.86097574   
    231000   0.44681283     3.991678      -0.89830127   
    232000   0.45289423     4.04038       -0.85848393   
    233000   0.44563875     3.93959       -0.86430984   
    234000   0.4532919      4.0104419     -0.86636575   
    235000   0.45090664     3.9489118     -0.94351996   
    236000   0.4478307      4.0026702     -0.93445923   
    237000   0.4492144      4.0096001     -0.9032451    
    238000   0.45360855     4.0221643     -0.89499516   
    239000   0.45505499     4.0144823     -0.92742769   
    240000   0.45039796     4.0256009     -0.9503976    
    241000   0.44979838     4.017162      -0.87497428   
    242000   0.44929221     4.0186        -0.89870706   
    243000   0.4478705      4.0178776     -0.86167455   
    244000   0.45570335     4.00907       -0.90634697   
    245000   0.45074212     4.0606802     -0.89860934   
    246000   0.4492317      3.9923012     -0.8929445    
    247000   0.44884523     4.0482991     -0.92130889   
    248000   0.44582382     3.9972339     -0.95821118   
    249000   0.45070008     4.0283946     -1.0095782    
    250000   0.45669471     4.0435848     -0.90031442   
    251000   0.44575126     4.0379882     -0.90389523   
    252000   0.45272551     4.0205244     -0.88986042   
    253000   0.45026787     4.0122298     -0.92389723   
    254000   0.45216172     4.0024237     -0.92479558   
    255000   0.45291764     3.9790014     -0.85021985   
    256000   0.44555018     4.0477026     -0.9385113    
    257000   0.4515486      4.0752096     -0.91551929   
    258000   0.45687409     4.047676      -0.89930861   
    259000   0.44858589     4.0559541     -0.85951468   
    260000   0.44978069     4.0027833     -0.93589212   
    261000   0.44985369     4.0280221     -0.91368997   
    262000   0.45188159     3.9971715     -0.89935928   
    263000   0.44889807     4.0569879     -0.90216408   
    264000   0.4477928      4.0414192     -0.82478079   
    265000   0.44689844     4.03458       -0.87902752   
    266000   0.4487875      3.9536178     -0.95410311   
    267000   0.44658934     3.9973538     -0.88279959   
    268000   0.45261044     4.0214064     -0.86223424   
    269000   0.4516292      4.0481155     -0.9373353    
    270000   0.45325858     4.0472018     -0.81324858   
    271000   0.44723172     3.9869858     -0.93416166   
    272000   0.45345063     4.0440535     -0.90844023   
    273000   0.44876024     4.0831327     -0.92717094   
    274000   0.4486047      4.0341764     -0.88654606   
    275000   0.4505065      4.0356035     -0.88506883   
    276000   0.4472323      4.0597752     -0.9137939    
    277000   0.45070016     4.0359546     -0.85387413   
    278000   0.45402116     4.0699833     -0.89658147   
    279000   0.45253123     3.9967238     -0.86313024   
    280000   0.45050329     4.0151495     -0.8846381    
    281000   0.44829199     4.0062682     -0.80131103   
    282000   0.44627105     4.0063257     -0.83610984   
    283000   0.45135183     4.0588555     -0.94946309   
    284000   0.44865338     4.0052487     -0.90106026   
    285000   0.45410667     4.0102194     -0.83901192   
    286000   0.45464175     4.03059       -0.93160578   
    287000   0.45095209     4.0497053     -0.91596985   
    288000   0.45201658     4.0444532     -0.97583774   
    289000   0.4487831      4.0317843     -0.8939491    
    290000   0.44184397     4.0427851     -0.91602367   
    291000   0.45130285     4.0994968     -0.93721173   
    292000   0.44520295     4.0123364     -0.92775321   
    293000   0.4530066      4.0253364     -0.87522738   
    294000   0.45120387     3.9788962     -0.87390236   
    295000   0.44666546     4.0402041     -0.91836749   
    296000   0.44506153     3.9679833     -0.85816297   
    297000   0.45643931     4.048678      -0.93093446   
    298000   0.45184149     3.9950778     -0.89912605   
    299000   0.45143919     4.0504288     -0.93757247   
    300000   0.45066058     4.0554761     -0.97241009   
    301000   0.45223246     4.0216777     -0.97773636   
    302000   0.44817976     4.034423      -0.91364726   
    303000   0.45397191     4.02999       -0.89294171   
    304000   0.44809109     4.0398928     -0.93158338   
    305000   0.44930159     3.9822873     -0.86457481   
    306000   0.45566583     3.9589182     -0.86603462   
    307000   0.45137843     4.0267982     -0.89117069   
    308000   0.44986753     4.0116635     -0.89735456   
    309000   0.4481953      4.0369749     -0.89196779   
    310000   0.45425079     4.0828882     -0.93979967   
    311000   0.44346927     3.992266      -0.88954915   
    312000   0.45498662     4.0573239     -0.85898616   
    313000   0.44791887     3.9960521     -0.82418863   
    314000   0.44249336     4.0459163     -0.93063111   
    315000   0.44562246     4.0299672     -0.97124849   
    316000   0.44959773     4.0295943     -0.88386748   
    317000   0.45140297     4.0381221     -1.0022406    
    318000   0.45171456     4.0400337     -0.91206764   
    319000   0.45149883     4.0339341     -0.92538463   
    320000   0.45111501     4.0045691     -0.89790063   
    321000   0.45186689     4.0490812     -0.80534829   
    322000   0.451491       3.9965525     -0.8776966    
    323000   0.45196272     4.0314846     -0.89960675   
    324000   0.45425075     4.0938953     -0.89947915   
    325000   0.44631659     4.0562694     -0.97514645   
    326000   0.45254494     4.0330956     -0.96652956   
    327000   0.45121075     3.987056      -0.88398936   
    328000   0.44724593     3.9963496     -0.89132284   
    329000   0.44974127     4.0414934     -0.87176829   
    330000   0.4495428      4.0231129     -0.88745181   
    331000   0.44904735     4.0131188     -0.88200297   
    332000   0.45426656     3.9873619     -0.93489842   
    333000   0.45007756     3.9861702     -0.91291974   
    334000   0.44379661     3.9996139     -0.92516007   
    335000   0.45287524     3.9943649     -0.95723694   
    336000   0.44884801     4.0464226     -0.89147083   
    337000   0.44964802     4.0299103     -0.96701121   
    338000   0.44862761     4.0009843     -0.95088744   
    339000   0.44903326     4.0741886     -0.81100002   
    340000   0.45079055     3.9853002     -0.77282606   
    341000   0.45240814     3.946614      -0.8393128    
    342000   0.45223936     3.9842959     -0.84780095   
    343000   0.45137379     4.0047334     -0.92081161   
    344000   0.44779394     4.0605693     -0.86767304   
    345000   0.44930583     4.010682      -0.95052155   
    346000   0.44543283     4.0390707     -0.92096291   
    347000   0.44588309     4.0353072     -0.88228939   
    348000   0.44927489     4.0636567     -0.8582609    
    349000   0.44849296     4.0407301     -0.89330199   
    350000   0.45213549     4.0150901     -0.87517644   
    351000   0.45080997     4.0385503     -0.90898595   
    352000   0.4493106      4.0314302     -0.88418615   
    353000   0.44711821     4.008658      -0.88129899   
    354000   0.44853228     4.0553876     -0.8681795    
    355000   0.4521854      4.004133      -0.92154986   
    356000   0.44852562     4.0314292     -0.86199137   
    357000   0.45318504     4.0166102     -0.79693108   
    358000   0.44799179     3.9992246     -0.85658575   
    359000   0.45357357     3.9903852     -0.88895035   
    360000   0.45015206     4.0347666     -0.93129667   
    361000   0.44768027     3.9919847     -0.97396025   
    362000   0.45497273     4.0534987     -0.9795643    
    363000   0.44323616     3.9874336     -0.93168466   
    364000   0.4511624      4.0211102     -0.83653711   
    365000   0.44894978     4.0806942     -0.86922812   
    366000   0.45439916     4.0207959     -0.90296407   
    367000   0.45527022     4.0491455     -0.90662459   
    368000   0.44766589     3.9936494     -0.92530743   
    369000   0.45675748     4.0843811     -0.97416144   
    370000   0.4493234      4.0161736     -0.85819186   
    371000   0.45339526     4.0168588     -0.86512108   
    372000   0.44568495     3.9562791     -0.90883051   
    373000   0.44933051     3.9567353     -0.86345019   
    374000   0.44867677     3.996651      -0.85729896   
    375000   0.44496631     3.9742717     -0.92902857   
    376000   0.4471906      3.9964516     -0.92157117   
    377000   0.45263348     3.9972302     -0.95747138   
    378000   0.45139479     4.0121685     -0.79301996   
    379000   0.45313983     4.0056841     -0.88414037   
    380000   0.44706826     3.9784143     -0.87079555   
    381000   0.45182602     4.0248523     -0.94915265   
    382000   0.44794035     3.9600226     -0.93383201   
    383000   0.45356367     4.0886155     -0.91635552   
    384000   0.44897248     4.0022638     -1.0489422    
    385000   0.4485475      4.0320769     -0.92670346   
    386000   0.44937918     4.0509594     -0.90920061   
    387000   0.4543764      4.0451059     -0.94754647   
    388000   0.44748289     4.0706167     -0.85348245   
    389000   0.44722069     3.9918969     -0.88971774   
    390000   0.45571449     4.0550355     -0.81865094   
    391000   0.45058178     4.0153643     -0.76751064   
    392000   0.45131434     4.0548027     -0.85347632   
    393000   0.44892349     4.0279795     -0.97022141   
    394000   0.4453854      4.0620846     -0.89710695   
    395000   0.453523       4.009827      -0.89085976   
    396000   0.45044636     3.9557495     -0.89026884   
    397000   0.4518188      4.0247593     -0.86334445   
    398000   0.4470136      4.0147089     -0.92680272   
    399000   0.44534901     4.0265185     -0.97666718   
    400000   0.44942783     4.0431729     -0.93207893   
    401000   0.45255955     4.0328575     -0.85098737   
    402000   0.4495862      4.0743586     -0.87295719   
    403000   0.45627461     3.9301747     -0.91171547   
    404000   0.44832796     4.0030671     -0.90501954   
    405000   0.44889215     3.9678176     -0.88607851   
    406000   0.45118114     4.0020572     -0.86248853   
    407000   0.44834683     4.0442167     -0.85521035   
    408000   0.44954396     3.9864199     -0.9384954    
    409000   0.4518386      4.0239458     -0.89571488   
    410000   0.45111291     4.0761357     -0.90714067   
    411000   0.45147718     3.9851049     -0.94060007   
    412000   0.44882113     4.016401      -0.90706047   
    413000   0.44972669     4.0568488     -0.90094429   
    414000   0.45464827     4.0523511     -0.93717666   
    415000   0.44922014     4.0144384     -0.93773354   
    416000   0.45272335     4.1319242     -0.83458134   
    417000   0.44723881     4.03855       -0.91787073   
    418000   0.45377595     4.016674      -0.85081368   
    419000   0.4554382      3.9923417     -0.87757959   
    420000   0.44924233     3.9820373     -1.0463974    
    421000   0.45156618     4.0012272     -0.87734126   
    422000   0.44853039     4.0487808     -0.96680386   
    423000   0.45180648     4.0480133     -0.95600746   
    424000   0.44818497     3.9547954     -0.89186845   
    425000   0.45271429     4.0576101     -0.74607726   
    426000   0.44682172     3.8968696     -0.86896098   
    427000   0.44947672     3.9847252     -0.94349373   
    428000   0.45177453     3.9620399     -0.93161012   
    429000   0.45912717     4.0547388     -0.87502354   
    430000   0.45148045     3.9966422     -0.92014953   
    431000   0.4559508      4.0228799     -0.87997873   
    432000   0.45021631     4.0209402     -0.95327254   
    433000   0.44390813     4.0409525     -0.9551631    
    434000   0.44615955     3.9870346     -0.82559907   
    435000   0.44988949     3.9919997     -0.8613534    
    436000   0.44978593     3.9601151     -0.89384103   
    437000   0.448787       3.9967008     -0.87517077   
    438000   0.45387428     3.992408      -0.89602879   
    439000   0.45130707     4.0020395     -0.88868375   
    440000   0.44784164     3.9966949     -0.94958476   
    441000   0.44716761     3.9937957     -0.92204736   
    442000   0.45210533     4.0075829     -0.93732006   
    443000   0.45468437     4.0234222     -0.9406243    
    444000   0.4495972      3.9910915     -0.92554575   
    445000   0.45057307     3.9986803     -0.89392162   
    446000   0.44630181     4.0576891     -0.92902746   
    447000   0.44569179     3.9843883     -0.88327974   
    448000   0.45482657     4.0191982     -0.77416933   
    449000   0.44410704     4.0188027     -0.83182835   
    450000   0.4509848      4.047505      -0.88941115   
    451000   0.45752922     4.0183714     -0.91824917   
    452000   0.45151186     3.9877268     -0.85628122   
    453000   0.44631216     4.0476083     -0.89510808   
    454000   0.45176069     4.0387644     -0.87408272   
    455000   0.44643294     3.9938819     -0.89245901   
    456000   0.44813213     4.0384478     -0.9531479    
    457000   0.45215724     4.0303138     -0.86735844   
    458000   0.44658651     3.9694867     -0.88682191   
    459000   0.44963023     4.0383357     -0.92753886   
    460000   0.44754223     3.9740184     -0.91967483   
    461000   0.45208579     3.9795018     -0.7541303    
    462000   0.44921191     3.9533566     -0.85571091   
    463000   0.45443863     4.0406395     -0.88748999   
    464000   0.4417788      4.0141067     -0.96446857   
[...]
   1339000   0.44972044     4.0308098     -0.8728082    
   1340000   0.45171055     4.053259      -0.91596059   
   1341000   0.44671063     4.0111627     -0.87007926   
   1342000   0.45025483     3.9783103     -0.85902308   
   1343000   0.45194043     4.0844114     -0.91631111   
   1344000   0.44691663     4.0166283     -0.91504125   
   1345000   0.45267323     4.0526668     -0.97918244   
   1346000   0.44600021     4.0026008     -0.85885266   
   1347000   0.45279168     4.0763143     -0.89907985   
   1348000   0.44788515     4.0556811     -0.85651614   
   1349000   0.44664658     4.0175761     -0.86336864   
   1350000   0.4506664      4.0349502     -0.88427581   
   1351000   0.44804259     4.0289948     -0.91206074   
   1352000   0.45103568     4.0394711     -0.95890661   
   1353000   0.44873875     3.9945049     -0.82969976   
   1354000   0.44932181     3.9809538     -0.80069046   
   1355000   0.45031584     4.0343478     -0.8854241    
   1356000   0.45006805     3.9816324     -0.92459513   
   1357000   0.44955082     3.9931532     -0.88591151   
   1358000   0.45351534     3.9969528     -0.92639696   
   1359000   0.44648966     4.0085124     -0.9387023    
   1360000   0.44729795     4.0140657     -0.97398725   
   1361000   0.44629714     4.0277814     -0.94020788   
   1362000   0.44734739     4.1261923     -0.93553818   
   1363000   0.45011074     4.065121      -0.86513086   
   1364000   0.44776389     4.0617911     -0.94414937   
   1365000   0.44951216     4.0336992     -0.92722074   
   1366000   0.45062976     4.024562      -0.99403388   
   1367000   0.44907383     4.0195215     -0.87437132   
   1368000   0.44990874     4.0386        -0.897996     
   1369000   0.44299779     3.963686      -0.91484642   
   1370000   0.45126332     4.0143903     -0.9541747    
   1371000   0.45359207     4.0701507     -0.90814275   
   1372000   0.44784375     4.0172737     -0.88459721   
   1373000   0.45063622     4.0071511     -0.85140404   
   1374000   0.4499447      4.0822064     -0.95096032   
   1375000   0.44937211     4.0466699     -0.92141557   
   1376000   0.45337984     4.0350675     -0.88787151   
   1377000   0.45159037     4.0517049     -0.85723224   
   1378000   0.44690756     4.0335859     -0.89818283   
   1379000   0.45352636     3.9804609     -0.95896215   
   1380000   0.44444179     4.030512      -0.92919224   
   1381000   0.45261479     4.0258953     -0.91313085   
   1382000   0.44590091     4.047429      -0.89044522   
   1383000   0.45255802     4.0415736     -0.87517021   
   1384000   0.44971501     3.9990917     -0.89222742   
   1385000   0.44949496     4.0418573     -0.85385377   
   1386000   0.44724911     3.9307663     -0.81424051   
   1387000   0.45536312     4.1100134     -0.89700173   
   1388000   0.45322241     4.0156431     -0.87799961   
   1389000   0.45005694     3.9893984     -0.89362128   
   1390000   0.45141653     3.9830401     -0.94190819   
   1391000   0.45333769     4.0544681     -0.9322482    
   1392000   0.45674861     4.0098655     -1.0139736    
   1393000   0.45310084     4.0216491     -0.90559083   
   1394000   0.45107558     4.0438218     -0.84171029   
   1395000   0.44578642     4.0533383     -0.87865622   
   1396000   0.44924627     4.0553458     -0.95520113   
   1397000   0.45042906     4.0494281     -0.86758399   
   1398000   0.44988011     4.0130399     -0.9201905    
   1399000   0.44847719     4.0370412     -0.89170367   
   1400000   0.45476474     3.9678661     -0.93905443   
   1401000   0.45026022     4.0555618     -0.97179402   
   1402000   0.44727968     3.9561074     -0.96396556   
   1403000   0.4483433      4.0003899     -0.98995674   
   1404000   0.45005337     4.0261879     -0.95604612   
   1405000   0.44625761     4.052319      -0.97644555   
   1406000   0.4531267      3.994017      -0.92367483   
   1407000   0.45296086     3.99054       -0.94951171   
   1408000   0.44484547     3.9969296     -0.88737158   
   1409000   0.44780778     3.9914525     -0.93174465   
   1410000   0.45085734     4.0297971     -0.9005007    
   1411000   0.45168067     4.0101082     -0.97340643   
   1412000   0.44575985     4.0430984     -0.92904224   
   1413000   0.44834646     4.0880348     -0.94357745   
   1414000   0.44585739     4.0515569     -0.89837236   
   1415000   0.45185814     4.0237786     -0.921784     
   1416000   0.45015749     4.0171974     -0.89701774   
   1417000   0.44840702     4.0149654     -0.92098272   
   1418000   0.44635664     3.9988287     -0.86222464   
   1419000   0.44825003     4.0504706     -0.82338551   
   1420000   0.45668977     4.0347664     -0.81436388   
   1421000   0.44924983     4.0227531     -0.9481913    
   1422000   0.44500714     3.9887349     -0.87364735   
   1423000   0.44919557     4.0311963     -0.96392211   
   1424000   0.44861926     4.0123927     -1.0598876    
   1425000   0.45216292     3.9837675     -0.85692277   
   1426000   0.45031462     4.0211033     -0.8918053    
   1427000   0.44758212     4.0199871     -0.91478894   
   1428000   0.45145388     4.0421044     -0.92745128   
   1429000   0.45003072     4.0329913     -0.9780931    
   1430000   0.45125439     4.0539454     -0.91899994   
   1431000   0.44746313     4.0295562     -0.87924472   
   1432000   0.4491214      4.0491128     -0.94891914   
   1433000   0.44860553     4.0639529     -0.86540276   
   1434000   0.44941454     4.0128843     -0.89867167   
   1435000   0.447192       4.0290865     -0.82910553   
   1436000   0.44571379     3.9492433     -0.84812403   
   1437000   0.45026831     3.995413      -0.87271971   
   1438000   0.44966512     4.0073859     -0.92513813   
   1439000   0.44810367     4.0928078     -0.88264549   
   1440000   0.44600364     3.9805016     -0.95418374   
   1441000   0.45029055     4.035639      -0.85626126   
   1442000   0.44856266     3.9369919     -0.82123029   
   1443000   0.44792808     3.974011      -0.88488686   
   1444000   0.44629912     3.9771842     -0.90965093   
   1445000   0.45389365     4.0135238     -0.95070107   
   1446000   0.44962423     3.9992915     -0.85732562   
   1447000   0.44758053     4.018175      -0.82410869   
   1448000   0.4471185      4.0227659     -0.92861716   
   1449000   0.45332663     3.9248473     -0.93818199   
   1450000   0.45206691     4.0470558     -0.86975758   
   1451000   0.45031946     3.9787349     -0.89589594   
   1452000   0.44992155     4.005895      -0.8575449    
   1453000   0.44912318     4.0255388     -0.88726941   
   1454000   0.44807102     4.0212069     -0.84336543   
   1455000   0.44926467     3.9957302     -0.92095174   
   1456000   0.45143817     4.0473173     -0.87355517   
   1457000   0.44887321     3.9671725     -0.88607665   
   1458000   0.45431599     4.0354488     -0.96590296   
   1459000   0.45067555     3.9759543     -0.90914224   
   1460000   0.45101724     3.9904094     -0.92994078   
   1461000   0.45254179     4.0102331     -0.88403842   
   1462000   0.44808134     4.0674779     -0.96817753   
   1463000   0.45122118     4.058746      -0.9876561    
   1464000   0.44842232     3.9781477     -0.93217775   
   1465000   0.45105853     4.0164784     -0.92558479   
   1466000   0.45040135     4.0105412     -0.92054733   
   1467000   0.44592298     3.9515515     -0.94933734   
   1468000   0.45113996     4.0332        -0.92409164   
   1469000   0.44803834     4.0425539     -0.91536547   
   1470000   0.44822983     3.9954812     -0.92466645   
   1471000   0.45140984     4.009843      -0.9519675    
   1472000   0.45535522     4.0380232     -0.82825093   
   1473000   0.4486657      3.9999748     -0.89259386   
   1474000   0.45112103     4.020053      -0.94872435   
   1475000   0.45095893     3.9798122     -0.92308201   
   1476000   0.44996332     4.0133567     -0.91337497   
   1477000   0.44645604     4.0117949     -0.89928687   
   1478000   0.4487089      4.0004874     -0.87618554   
   1479000   0.45339347     3.9958897     -0.8840273    
   1480000   0.45410278     4.0032907     -0.88002592   
   1481000   0.44775277     4.0819844     -0.93168491   
   1482000   0.44980445     4.0716431     -0.97517218   
   1483000   0.44808115     4.0103455     -0.95871437   
   1484000   0.45273783     4.0096562     -0.94357069   
   1485000   0.45015955     4.0812961     -0.89783305   
   1486000   0.4528746      3.9581053     -0.8434676    
   1487000   0.44762192     3.9948251     -0.86186683   
   1488000   0.44831682     3.9962511     -0.93056372   
   1489000   0.44883324     4.0630077     -0.91917099   
   1490000   0.44363949     4.0080572     -0.96195179   
   1491000   0.45099449     4.036288      -0.90717382   
   1492000   0.45397501     4.0604868     -0.8901651    
   1493000   0.45162521     4.0031661     -0.91418104   
   1494000   0.45392902     4.0237371     -0.92360602   
   1495000   0.44689231     4.0273565     -0.82922794   
   1496000   0.45093451     4.0521376     -0.87262792   
   1497000   0.44801267     3.9728291     -0.83143772   
   1498000   0.45454075     4.0288669     -0.88433886   
   1499000   0.45058274     4.0046615     -0.85355727   
   1500000   0.44752263     4.0404497     -0.96458175   
   1501000   0.45017149     4.005373      -0.88581449   
   1502000   0.44965261     4.0284402     -0.87619872   
   1503000   0.45594323     4.0132587     -0.90867403   
   1504000   0.453341       4.0484979     -0.90246868   
   1505000   0.44832116     3.9629819     -0.94893778   
   1506000   0.45456277     3.9945735     -0.9121707    
   1507000   0.44595142     3.9739151     -0.98163357   
   1508000   0.44707839     3.9952064     -0.93046691   
   1509000   0.44784267     4.0241199     -0.92433867   
   1510000   0.45125835     4.0470778     -0.94248776   
   1511000   0.44723527     4.0211814     -0.83489522   
   1512000   0.45066904     3.9979765     -0.80892888   
   1513000   0.44882577     4.0212276     -0.95036934   
   1514000   0.44721301     4.0528027     -0.88556796   
   1515000   0.45179396     4.0015406     -0.89431095   
   1516000   0.45047844     4.0070284     -0.87097846   
   1517000   0.44934106     4.0513341     -0.84615943   
   1518000   0.45086857     4.0255382     -0.83625399   
   1519000   0.44674499     3.9581573     -0.90288907   
   1520000   0.4577754      4.0274358     -0.84879609   
   1521000   0.44992897     4.0138122     -0.84429362   
   1522000   0.450822       4.078007      -0.88481922   
   1523000   0.45136094     3.9452446     -0.91365248   
   1524000   0.44824855     4.024568      -0.88617546   
   1525000   0.44725468     4.0066822     -0.89736408   
   1526000   0.45025574     3.9596101     -0.91297161   
   1527000   0.45311894     3.9737703     -0.96480742   
   1528000   0.44744602     3.9932737     -0.92945828   
   1529000   0.44868229     3.9815084     -0.920239     
   1530000   0.4546841      3.9912434     -0.8894637    
   1531000   0.44827576     3.9901357     -0.84747921   
   1532000   0.44865757     4.0440477     -0.90003404   
   1533000   0.44755449     3.9807639     -0.87331309   
   1534000   0.45117023     4.0361144     -0.85095417   
   1535000   0.44541222     3.9634892     -0.92413607   
   1536000   0.44871611     4.0365848     -0.82845822   
   1537000   0.44742066     3.9409838     -0.90508703   
   1538000   0.4526175      4.0122973     -0.9765538    
   1539000   0.45092742     4.0618982     -0.9851106    
   1540000   0.44754974     4.0010986     -0.86633483   
   1541000   0.44944336     4.059234      -0.84247906   
   1542000   0.45020193     4.1047042     -0.95615976   
   1543000   0.44932328     3.9873609     -0.94429771   
   1544000   0.45033029     4.0375322     -0.93646082   
   1545000   0.45059425     4.0381837     -0.94045208   
   1546000   0.44894806     4.017863      -0.93356357   
   1547000   0.44820121     4.0547025     -1.0185284    
   1548000   0.44845622     4.0181542     -0.85757686   
   1549000   0.44723286     4.028215      -0.87700493   
   1550000   0.45224845     3.986775      -0.90370269   
   1551000   0.44893083     4.0492191     -0.92968165   
   1552000   0.44697413     3.9419543     -0.87522773   
   1553000   0.45014399     4.0595327     -1.0122563    
   1554000   0.44843931     4.0264855     -0.96700486   
   1555000   0.44964604     3.9982142     -0.84625281   
   1556000   0.44980251     4.0282531     -0.92122689   
   1557000   0.45290363     3.9560971     -0.91208186   
   1558000   0.45235954     4.0533728     -0.85459163   
   1559000   0.44361014     4.029781      -0.88259844   
   1560000   0.44359371     3.9796226     -0.96413293   
   1561000   0.45047049     4.0432733     -0.89936016   
   1562000   0.44949435     3.9686388     -0.8739743    
   1563000   0.45379815     3.9563005     -0.94835616   
   1564000   0.44548131     4.0016307     -0.85585782   
   1565000   0.45209556     3.9958299     -0.98606084   
   1566000   0.44892047     4.0057181     -0.93837703   
   1567000   0.44882705     3.9916658     -0.96763005   
   1568000   0.44906564     4.0621138     -0.95208297   
   1569000   0.45345977     4.0079542     -0.86654474   
   1570000   0.44980512     4.0183592     -0.94296881   
   1571000   0.45331971     4.0750372     -0.95425687   
   1572000   0.44836559     4.0224309     -0.83595179   
   1573000   0.45314986     4.0234264     -0.83118038   
   1574000   0.44962517     4.0290127     -0.84147489   
   1575000   0.45342321     4.0569037     -0.91311607   
   1576000   0.4462367      4.0018366     -0.89441855   
   1577000   0.45174842     4.0201785     -0.94380685   
   1578000   0.45310238     3.9888439     -0.91458011   
   1579000   0.44401428     3.9680275     -0.93221686   
   1580000   0.45223694     4.044097      -0.87408657   
   1581000   0.44853387     4.0211526     -0.90862588   
   1582000   0.45410169     3.9928998     -0.95806564   
   1583000   0.44479391     4.0071814     -0.92978057   
   1584000   0.44913412     4.0064182     -0.89393604   
   1585000   0.45180477     3.9932549     -0.92043034   
   1586000   0.45308997     4.0549846     -0.86931397   
   1587000   0.44844445     3.9659565     -0.93915531   
   1588000   0.44871786     4.0290679     -0.98756864   
   1589000   0.44766442     3.9838212     -0.88986678   
   1590000   0.45346215     4.0372354     -0.87685084   
   1591000   0.45074186     4.0262883     -0.98643705   
   1592000   0.45413319     3.9829576     -0.95784943   
   1593000   0.45159996     4.0445797     -0.92565868   
   1594000   0.4503283      3.9959846     -0.88738979   
   1595000   0.44845776     4.0090321     -0.87112383   
   1596000   0.44955384     3.9887315     -0.88335663   
   1597000   0.45023009     4.0763553     -0.95831095   
   1598000   0.45090206     3.9851652     -0.93040108   
   1599000   0.44846639     4.0558081     -0.86637617   
   1600000   0.45566766     4.0520519     -0.82413      
   1601000   0.45019007     4.1140874     -0.87241117   
   1602000   0.45261923     4.0450267     -0.9229109    
   1603000   0.45156829     4.0974602     -0.8904051    
   1604000   0.45053301     4.0423458     -0.89602872   
   1605000   0.45479064     4.0117847     -0.87943253   
   1606000   0.44788528     4.0133963     -0.89114444   
   1607000   0.45173745     4.041693      -0.85929576   
   1608000   0.45145188     4.0294182     -0.87796379   
   1609000   0.4478845      3.9942977     -0.92953836   
   1610000   0.45000173     4.0232203     -0.99233227   
   1611000   0.45367586     4.0190036     -0.96564231   
   1612000   0.4516634      4.0382305     -0.94188518   
   1613000   0.446914       4.001824      -0.90620298   
   1614000   0.44760257     4.0198918     -0.89775471   
   1615000   0.45357425     4.0520093     -0.95243537   
   1616000   0.44740444     3.9826364     -0.95582069   
   1617000   0.44972869     4.0195491     -0.91005231   
   1618000   0.45096149     4.036395      -0.90552703   
   1619000   0.45218815     4.0592018     -0.81907467   
   1620000   0.44592921     4.0347674     -0.82670309   
   1621000   0.45174833     4.0680634     -0.90445935   
   1622000   0.44037974     4.0151784     -0.94032685   
   1623000   0.45108849     4.0780175     -0.93487465   
   1624000   0.44679987     3.9873213     -0.95006672   
   1625000   0.45077395     4.0209201     -0.86172793   
   1626000   0.45201318     3.9729163     -0.87409498   
   1627000   0.45429963     4.0244473     -0.83386352   
   1628000   0.44999668     3.964536      -0.83352142   
   1629000   0.44840745     3.9935057     -0.84108996   
   1630000   0.45206664     4.0764739     -0.87690211   
   1631000   0.448574       4.0063682     -0.90830647   
   1632000   0.44797971     4.021378      -0.87503062   
   1633000   0.45048403     3.9691233     -0.84021159   
   1634000   0.4537188      3.9909819     -0.85499974   
   1635000   0.44971026     3.9863932     -0.88856284   
   1636000   0.4536854      4.030015      -0.81401347   
   1637000   0.45130972     4.0238079     -0.90463374   
   1638000   0.45081036     4.0252122     -0.97199794   
   1639000   0.449935       4.0623154     -1.0015403    
   1640000   0.45284856     4.030976      -0.94847811   
   1641000   0.44986401     4.034483      -0.8996688    
   1642000   0.45413897     4.0521954     -0.99291309   
   1643000   0.44672907     4.0365787     -0.94579418   
   1644000   0.44562393     4.0842614     -0.89841484   
   1645000   0.44496744     3.9745688     -0.86444887   
   1646000   0.45487423     3.9742717     -0.99596285   
   1647000   0.4468013      3.9693094     -0.89536079   
   1648000   0.44941114     4.0315757     -0.90509924   
   1649000   0.44962051     3.992266      -0.92666352   
   1650000   0.45038068     4.0638516     -0.92324697   
   1651000   0.45209549     4.0387006     -0.91996638   
   1652000   0.45087003     3.9955516     -0.93519105   
   1653000   0.45313842     4.045515      -0.90313455   
   1654000   0.44904678     4.0259809     -0.96532221   
   1655000   0.45182173     4.0342929     -0.96672946   
   1656000   0.44666253     4.0359943     -0.8699432    
   1657000   0.45092206     4.0336872     -0.91892259   
   1658000   0.44882209     4.0328289     -0.87192009   
   1659000   0.45069306     4.0491063     -0.86135688   
   1660000   0.45035118     3.9575697     -0.89671789   
   1661000   0.45498223     4.0185661     -0.93001537   
   1662000   0.44762643     4.0032795     -0.93203756   
   1663000   0.44861139     4.0442147     -0.88318666   
   1664000   0.44528164     3.9638428     -0.94864972   
   1665000   0.45446395     3.9862832     -0.85685396   
   1666000   0.45156342     3.9946408     -0.92828134   
   1666667   0.45105337     4.0157667     -0.96426497   
Loop time of 3830.74 on 22 procs for 1666667 steps with 16500 atoms

Performance: 37590.638 tau/day, 435.077 timesteps/s, 7.179 Matom-step/s
93.9% CPU use with 22 MPI tasks x 1 OpenMP threads

MPI task timing breakdown:
Section |  min time  |  avg time  |  max time  |%varavg| %total
---------------------------------------------------------------
Pair    | 1815.5     | 1867.9     | 1916.2     |  65.5 | 48.76
Neigh   | 294.42     | 299.15     | 303.82     |  15.3 |  7.81
Comm    | 1007.8     | 1048.5     | 1096.5     |  80.4 | 27.37
Output  | 17.862     | 25.871     | 33.716     |  93.7 |  0.68
Modify  | 469.33     | 495.15     | 530.63     |  78.9 | 12.93
Other   |            | 94.18      |            |       |  2.46

Nlocal:            750 ave         766 max         729 min
Histogram: 1 0 2 3 3 3 2 4 2 2
Nghost:         4098.5 ave        4119 max        4065 min
Histogram: 1 1 0 2 4 3 1 1 3 6
Neighs:        41218.6 ave       42284 max       39969 min
Histogram: 1 0 4 2 4 3 1 2 3 2

Total # of neighbors = 906809
Ave neighs/atom = 54.958121
Neighbor list builds = 44704
Dangerous builds = 0

print "Shear run complete: gamma_dot = ${SHEAR_RATE}"
Shear run complete: gamma_dot = 0.030
Total wall time: 1:24:31
