LAMMPS (10 Dec 2025)
OMP_NUM_THREADS environment is not set. Defaulting to 1 thread.
  using 1 OpenMP thread(s) per MPI task
Loaded 1 plugins from C:\Users\fangy\AppData\Local\LAMMPS 64-bit 10Dec2025-MSMPI\plugins
# ===========================================================================
# LAMMPS Input Script: SLLOD Shear Production Run (Template)
# Reference: Zeng et al., J. Chem. Phys. 163, 084512 (2025)
#
# Usage (example):
#   mpirun -np 4 lmp -in in.shear_template \
#       -var SHEAR_RATE 0.01 -var DT 0.003 -var SEED 12345 \
#       -log log.shear_0.01
#
# Required command-line variables:
#   SHEAR_RATE  : shear rate (LJ units, tau_0^{-1})
#   DT          : timestep  (0.003 for gamma_dot <= 0.01; 0.001 otherwise)
#   SEED        : random seed (reserved; not used in current version)
#
# SLLOD physics summary:
#   - Lees-Edwards BC: periodic box sheared in xy plane
#     (flow x, gradient y, vorticity z)
#   - fix deform:     d(xy)/dt = gamma_dot * Ly  (remap v required)
#   - fix nvt/sllod:  SLLOD EOM + Nose-Hoover thermostat in peculiar frame
#   - Viscosity:      eta = -<P_xy> / gamma_dot
#     (P_xy in LAMMPS = full stress, positive in compression sign convention;
#      for shear flow: P_xy = sigma_xy = -eta * gamma_dot, so eta = -P_xy/gamma_dot)
#
# Protocol:
#   Pre-run:    accumulated strain Delta_gamma = 20  (reach steady state)
#   Production: accumulated strain Delta_gamma = 50  (data collection)
#
# Output files (written to working directory, moved by bash script):
#   dump.shear_${SHEAR_RATE}.lammpstrj  : atom trajectories every 0.5/gamma_dot
#   thermo.shear_${SHEAR_RATE}.dat      : P_xy time series every 100 steps
#   visc_blockave.shear_${SHEAR_RATE}.dat : block-averaged -<P_xy>
# ===========================================================================

# ===========================
# BASIC SETUP
# ===========================
units       lj
atom_style  atomic

# ===========================
# READ EQUILIBRATED CONFIG
# ===========================
# Restores: positions, velocities, masses, box geometry,
#           pair_style and pair_coeff from the equilibration run.
read_restart  restart.equil
Reading restart file ...
  restart file = 7 Feb 2024, LAMMPS = 10 Dec 2025
WARNING: Restart file used different # of processors: 6 vs. 22 (src/read_restart.cpp:630)
  restoring atom style atomic from restart
  orthogonal box = (0 0 0) to (23.957099 23.957099 23.957099)
  1 by 2 by 11 MPI processor grid
  restoring pair style lj/cut from restart
  16500 atoms
  read_restart CPU = 0.005 seconds

# Re-specify pair potential explicitly (defensive: ensures correct parameters
# even if restart was written with a different LAMMPS version).
pair_style  lj/cut  2.5
pair_coeff  1 1  1.0   1.0   2.5
pair_coeff  1 2  1.5   0.8   2.5
pair_coeff  2 2  0.5   0.88  2.5
pair_modify  shift  yes

# Rebuild neighbor list from scratch (box geometry may change below)
neighbor      0.3  bin
neigh_modify  every 1  delay 0  check yes

# ===========================
# DERIVED PARAMETERS
# ===========================
# Thermostat damping = 100 * dt
# (100 steps per oscillation period; standard Nose-Hoover choice)
variable  DAMP        equal  100.0*${DT}
variable  DAMP        equal  100.0*0.003

# Target temperature
variable  TEMP        equal  0.45

# Pre-run steps: strain = gamma_dot * t = gamma_dot * (N_steps * dt) = 20
# => N_pre = round(20 / (gamma_dot * dt))
variable  N_pre       equal  round(20.0/(${SHEAR_RATE}*${DT}))
variable  N_pre       equal  round(20.0/(0.005*${DT}))
variable  N_pre       equal  round(20.0/(0.005*0.003))

# Production steps: strain = 50
# => N_prod = round(50 / (gamma_dot * dt))
variable  N_prod      equal  round(50.0/(${SHEAR_RATE}*${DT}))
variable  N_prod      equal  round(50.0/(0.005*${DT}))
variable  N_prod      equal  round(50.0/(0.005*0.003))

# Dump interval: Delta_t_dump = 0.5 / gamma_dot time units
# => dump_every = round(0.5 / (gamma_dot * dt)) steps
# This gives ~100 trajectory frames per strain unit (sufficient for cage jump analysis)
variable  DUMP_EVERY  equal  round(0.02/(${SHEAR_RATE}*${DT}))
variable  DUMP_EVERY  equal  round(0.02/(0.005*${DT}))
variable  DUMP_EVERY  equal  round(0.02/(0.005*0.003))

# ===========================
# CONVERT BOX TO TRICLINIC
# ===========================
# The equilibrated restart has an orthogonal box.
# fix deform with 'xy erate' requires a triclinic box to store the xy tilt.
# change_box converts orthogonal -> triclinic without moving atoms.
change_box  all  triclinic
Changing box ...
  triclinic box = (0 0 0) to (23.957099 23.957099 23.957099) with tilt (0 0 0)

# ===========================
# TIMESTEP
# ===========================
timestep  ${DT}
timestep  0.003

# ===========================
# SLLOD SHEAR FIXES
# ===========================

# --- fix deform: apply Lees-Edwards boundary condition ---
# 'xy erate ${SHEAR_RATE}' ramps the xy tilt angle at rate gamma_dot,
# producing a linear shear flow vx = gamma_dot * y.
#
# 'remap v' is REQUIRED when using fix nvt/sllod:
#   When an atom crosses the y boundary, its vx is adjusted by +/- gamma_dot*Ly
#   to maintain a smooth velocity profile across the periodic boundary.
#   fix nvt/sllod uses this to compute the streaming velocity for thermostatting.
#
# 'flip yes' (default): when |xy| > Lx/2, the box is flipped to an equivalent
#   periodic image, preventing the box from becoming arbitrarily skewed.
#   This is the standard Lees-Edwards treatment for long runs.
#
fix  shear_deform  all  deform  1  xy  erate  ${SHEAR_RATE}  remap  v  flip  yes
fix  shear_deform  all  deform  1  xy  erate  0.005  remap  v  flip  yes

# --- fix nvt/sllod: SLLOD equations of motion with Nose-Hoover thermostat ---
# Integrates: dp_i/dt = F_i - (dxz_dot)*p_yi*xhat - xi*p_i
# where dxz_dot = gamma_dot (velocity gradient).
# Internally creates compute temp/deform to compute temperature with
# streaming velocity subtracted.
# NOTE: this fix REQUIRES that fix deform uses 'remap v' (enforced by LAMMPS).
#
fix  sllod_nvt  all  nvt/sllod  temp  ${TEMP}  ${TEMP}  ${DAMP}
fix  sllod_nvt  all  nvt/sllod  temp  0.45  ${TEMP}  ${DAMP}
fix  sllod_nvt  all  nvt/sllod  temp  0.45  0.45  ${DAMP}
fix  sllod_nvt  all  nvt/sllod  temp  0.45  0.45  0.3

# --- Thermo quantities consistent with SLLOD (remove streaming velocity) ---
compute  Tdeform all temp/deform
compute  Pdeform all pressure Tdeform

thermo_modify  temp  Tdeform
thermo_modify  press Pdeform

# ===========================
# LOG THERMO (to log file)
# ===========================
thermo        1000
thermo_style  custom  step  c_Tdeform  c_Pdeform  c_Pdeform[4]
WARNING: New thermo_style command, previous thermo_modify settings will be lost (src/output.cpp:1100)
thermo_modify  flush  yes

# ===========================
# PRE-RUN: REACH STEADY STATE (Delta_gamma = 20)
# ===========================
# No file output during pre-run to avoid polluting data files with transients.
# Low shear rates (e.g., 0.001) require N_pre = 6,666,667 steps — be patient.
print "=========================================="
==========================================
print "PRE-RUN"
PRE-RUN
print "  gamma_dot   = ${SHEAR_RATE}"
  gamma_dot   = 0.005
print "  dt          = ${DT}"
  dt          = 0.003
print "  N_pre steps = ${N_pre}  (strain = 20)"
  N_pre steps = 1333333  (strain = 20)
print "=========================================="
==========================================
run  ${N_pre}
run  1333333
Generated 0 of 1 mixed pair_coeff terms from geometric mixing rule
Unused restart file peratom fix info:
  fix style: STORE/ATOM, fix ID: myMSD_COMPUTE_STORE
Neighbor list info ...
  update: every = 1 steps, delay = 0 steps, check = yes
  max neighbors/atom: 2000, page size: 100000
  master list distance cutoff = 2.8
  ghost atom cutoff = 2.8
  binsize = 1.4, bins = 18 18 18
  1 neighbor lists, perpetual/occasional/extra = 1 0 0
  (1) pair lj/cut, perpetual
      attributes: half, newton on
      pair build: half/bin/atomonly/newton/tri
      stencil: half/bin/3d/tri
      bin: standard
Per MPI rank memory allocation (min/avg/max) = 3.301 | 3.303 | 3.305 Mbytes
   Step       c_Tdeform      c_Pdeform     c_Pdeform[4] 
    651000   0.45004298     3.0440069     -0.027313921  
    652000   0.44860211     2.9253989     -0.21612065   
    653000   0.44952445     3.0078741     -0.49089977   
    654000   0.44712911     3.0738491     -0.63809022   
    655000   0.4477486      3.0730143     -0.69336291   
    656000   0.45349783     3.1792031     -0.81965278   
    657000   0.44594011     3.2086714     -0.90535759   
    658000   0.45254616     3.3161844     -0.85245169   
    659000   0.44806138     3.3797812     -0.86103664   
    660000   0.44734479     3.3852065     -0.88357456   
    661000   0.44970168     3.4189126     -0.73273258   
    662000   0.45184236     3.4276816     -0.68655684   
    663000   0.44994841     3.4531454     -0.57774591   
    664000   0.44933342     3.4759226     -0.58448487   
    665000   0.44675159     3.4836363     -0.5447405    
    666000   0.45071716     3.4878606     -0.58959553   
    667000   0.45143614     3.4594197     -0.61967188   
    668000   0.44687842     3.4849576     -0.55927817   
    669000   0.44896624     3.5393507     -0.56562225   
    670000   0.44600599     3.4392649     -0.526706     
    671000   0.45592364     3.4782687     -0.55612906   
    672000   0.44890025     3.4306837     -0.58139123   
    673000   0.44818074     3.497261      -0.56500723   
    674000   0.44843234     3.5087217     -0.5351332    
    675000   0.44876181     3.5196579     -0.52384501   
    676000   0.45346842     3.4444237     -0.4983587    
    677000   0.44895017     3.4695102     -0.55055659   
    678000   0.44832938     3.476121      -0.46101221   
    679000   0.45236506     3.4747932     -0.55529432   
    680000   0.44690538     3.5038911     -0.46658594   
    681000   0.44477133     3.4939322     -0.54093807   
    682000   0.44886191     3.4497371     -0.48514526   
    683000   0.45083241     3.5144344     -0.55838656   
    684000   0.44701262     3.4892257     -0.52656953   
    685000   0.44838384     3.4928097     -0.56019076   
    686000   0.45229072     3.5032997     -0.46709601   
    687000   0.45177389     3.3943741     -0.55553771   
    688000   0.451407       3.4880594     -0.59218015   
    689000   0.44837622     3.4950405     -0.49636532   
    690000   0.44808208     3.4739603     -0.58755267   
    691000   0.45540933     3.5230904     -0.57595995   
    692000   0.44311085     3.4760411     -0.48617354   
    693000   0.45312902     3.5498487     -0.52177769   
    694000   0.44750795     3.4551668     -0.43733231   
    695000   0.44751534     3.5128215     -0.53185305   
    696000   0.45454945     3.5195389     -0.57299238   
    697000   0.44674406     3.4394497     -0.55929934   
    698000   0.45307363     3.5347952     -0.64484677   
    699000   0.44962884     3.4584699     -0.48744173   
    700000   0.4536857      3.5098554     -0.55898422   
    701000   0.44413457     3.5024649     -0.51216368   
    702000   0.45177729     3.4932862     -0.52943239   
    703000   0.45056489     3.5151474     -0.50904847   
    704000   0.44510977     3.459628      -0.490285     
    705000   0.45557118     3.543917      -0.51506496   
    706000   0.44919572     3.5096542     -0.48619953   
    707000   0.4476822      3.4950753     -0.53582479   
    708000   0.45230345     3.5331734     -0.53043416   
    709000   0.45238477     3.5434413     -0.55508438   
    710000   0.44664242     3.5320656     -0.62909357   
    711000   0.45016414     3.5167039     -0.60972339   
    712000   0.44895681     3.4744967     -0.58219644   
    713000   0.45205014     3.482678      -0.52832087   
    714000   0.45072318     3.532234      -0.5102621    
    715000   0.44615378     3.4885925     -0.57243295   
    716000   0.45131777     3.4573161     -0.49221452   
    717000   0.45195508     3.5069688     -0.46633229   
    718000   0.44597772     3.4814085     -0.61320269   
    719000   0.45444648     3.5337892     -0.56038748   
    720000   0.45174536     3.4720562     -0.48464222   
    721000   0.45087332     3.4910311     -0.60199497   
    722000   0.4515409      3.488215      -0.50925895   
    723000   0.44933309     3.46569       -0.53712437   
    724000   0.4499769      3.5637386     -0.55828114   
    725000   0.44919402     3.5046333     -0.5410452    
    726000   0.44950363     3.5040565     -0.53658137   
    727000   0.45336841     3.5150271     -0.63242271   
    728000   0.44671832     3.4826853     -0.53997584   
    729000   0.45546688     3.5408229     -0.59085307   
    730000   0.44899475     3.5676225     -0.64006283   
    731000   0.45081314     3.5132445     -0.50456032   
    732000   0.45312429     3.5348033     -0.50593519   
    733000   0.44975175     3.4870892     -0.46477874   
    734000   0.44840586     3.5468972     -0.53984452   
    735000   0.44935808     3.473613      -0.48063954   
    736000   0.45246719     3.4815167     -0.48796638   
    737000   0.44876402     3.5669905     -0.52730645   
    738000   0.44544533     3.5124971     -0.55215842   
    739000   0.4555246      3.4848952     -0.55544837   
    740000   0.4455278      3.494178      -0.49171351   
    741000   0.45506091     3.5503682     -0.55730715   
    742000   0.4532199      3.5154195     -0.52638566   
    743000   0.44726284     3.5101506     -0.54035038   
    744000   0.45025408     3.5178593     -0.48805574   
    745000   0.45446513     3.5040228     -0.50811202   
    746000   0.44670132     3.5101169     -0.52866374   
    747000   0.45415601     3.5420596     -0.52908973   
    748000   0.44422445     3.4399929     -0.56841635   
    749000   0.45498321     3.4629969     -0.47366365   
    750000   0.45677888     3.4939558     -0.59686691   
    751000   0.45135223     3.5011576     -0.55285235   
    752000   0.4500415      3.5235703     -0.49205117   
    753000   0.44730523     3.4726964     -0.49117692   
    754000   0.45209354     3.5133835     -0.620385     
    755000   0.44912129     3.514885      -0.57851911   
    756000   0.44744021     3.5398411     -0.5308966    
    757000   0.45229552     3.4908763     -0.46271371   
    758000   0.45018867     3.5132754     -0.50043823   
    759000   0.45245749     3.4768605     -0.52570087   
    760000   0.44745671     3.4828913     -0.50896372   
    761000   0.45328412     3.5367287     -0.48705513   
    762000   0.44739435     3.4713576     -0.52535546   
    763000   0.45105359     3.5216905     -0.51454759   
    764000   0.44905034     3.4606013     -0.56095661   
    765000   0.45218797     3.5045275     -0.50030592   
    766000   0.45063071     3.5022921     -0.51295737   
    767000   0.45150407     3.4701814     -0.53878154   
    768000   0.44597326     3.5179686     -0.49274855   
    769000   0.45136001     3.4702917     -0.50682226   
    770000   0.44935043     3.4635654     -0.47854701   
    771000   0.45376349     3.5176494     -0.58191314   
    772000   0.44781862     3.473613      -0.56392665   
    773000   0.45146243     3.5238527     -0.58404381   
    774000   0.44620599     3.515417      -0.54905912   
    775000   0.45311146     3.5087419     -0.62504832   
    776000   0.45358097     3.4983646     -0.54251361   
    777000   0.45121706     3.4533751     -0.5276764    
    778000   0.45159224     3.5103787     -0.52974438   
    779000   0.4491559      3.4908266     -0.51234367   
    780000   0.45421354     3.5145136     -0.52355612   
    781000   0.45240434     3.4813489     -0.52556045   
    782000   0.44931932     3.4498701     -0.48076883   
    783000   0.45454989     3.5380584     -0.47571558   
    784000   0.44891639     3.4988535     -0.50531371   
    785000   0.44997804     3.5144345     -0.50108564   
    786000   0.45351268     3.5373424     -0.59402626   
    787000   0.44657802     3.4366082     -0.55567856   
    788000   0.45387642     3.5031219     -0.45610481   
    789000   0.4519894      3.5093925     -0.57791748   
    790000   0.44759242     3.5331819     -0.59387901   
    791000   0.45172001     3.5493381     -0.48956696   
    792000   0.44525185     3.5255434     -0.47723465   
    793000   0.45005902     3.5410801     -0.49437102   
    794000   0.44363056     3.5203628     -0.64511766   
    795000   0.45165348     3.5390296     -0.54112691   
    796000   0.44944977     3.4724004     -0.53016772   
    797000   0.45185725     3.5376642     -0.56808763   
    798000   0.44566739     3.479703      -0.58471546   
    799000   0.45259015     3.51669       -0.52223911   
    800000   0.45050351     3.4881494     -0.55942379   
    801000   0.45284145     3.528845      -0.60629109   
    802000   0.45082474     3.529504      -0.49631712   
    803000   0.44822821     3.5158618     -0.54482437   
    804000   0.45077486     3.4943289     -0.57400592   
    805000   0.45047057     3.4868697     -0.55994157   
    806000   0.45072102     3.5236089     -0.58238838   
    807000   0.45059695     3.4473854     -0.51492151   
    808000   0.44794601     3.4828609     -0.53596172   
    809000   0.45284629     3.4996326     -0.65112056   
    810000   0.44836295     3.4357562     -0.57681457   
    811000   0.45240496     3.4863276     -0.46002447   
    812000   0.44836608     3.4924507     -0.53876521   
    813000   0.44676538     3.4954166     -0.58713278   
    814000   0.45279841     3.5339329     -0.49141448   
    815000   0.44703872     3.4668937     -0.64398836   
    816000   0.45000076     3.507914      -0.61908078   
    817000   0.45134297     3.5659569     -0.59116778   
    818000   0.44446285     3.4608473     -0.5526914    
    819000   0.45320559     3.5456303     -0.57199299   
    820000   0.4510346      3.4596419     -0.60080767   
    821000   0.44870937     3.5418117     -0.50451209   
    822000   0.45134685     3.4953544     -0.46897218   
    823000   0.44686142     3.5338999     -0.56976538   
    824000   0.44736791     3.4911196     -0.53823095   
    825000   0.45078027     3.5497205     -0.48894473   
    826000   0.45120967     3.5036331     -0.53390425   
    827000   0.44942381     3.5065417     -0.46429117   
    828000   0.45200101     3.530039      -0.53514306   
    829000   0.44713895     3.4860991     -0.47090251   
    830000   0.45145992     3.4746339     -0.5747537    
    831000   0.45042633     3.5091863     -0.56959554   
    832000   0.44463613     3.4660611     -0.56650961   
    833000   0.45287139     3.5411028     -0.53940213   
    834000   0.44747846     3.4727739     -0.5249854    
    835000   0.45190215     3.5155838     -0.50410385   
    836000   0.44862147     3.5086901     -0.51331542   
    837000   0.44956253     3.4923821     -0.58083517   
    838000   0.45130774     3.5152826     -0.5053185    
    839000   0.44898516     3.4827902     -0.56788979   
    840000   0.44561086     3.4949951     -0.52557256   
    841000   0.45143031     3.4382494     -0.47602945   
    842000   0.45413323     3.4801063     -0.55276849   
    843000   0.44677154     3.4614537     -0.61606812   
    844000   0.45309778     3.4888878     -0.60619904   
    845000   0.44792264     3.4623635     -0.5681458    
    846000   0.45221402     3.5486936     -0.56761338   
    847000   0.4477938      3.5069468     -0.58136923   
    848000   0.44963634     3.5458559     -0.50351438   
    849000   0.44867945     3.5064689     -0.50540983   
    850000   0.45208832     3.5067845     -0.52093568   
    851000   0.44984128     3.5423657     -0.50373183   
    852000   0.44784639     3.4787305     -0.47406306   
    853000   0.45316244     3.5022896     -0.48939438   
    854000   0.44933478     3.4817727     -0.546264     
    855000   0.45067045     3.4814082     -0.51559712   
    856000   0.44915081     3.4888462     -0.41574336   
    857000   0.45116186     3.4619276     -0.52498375   
    858000   0.45774965     3.4753195     -0.54530727   
    859000   0.44727252     3.4296993     -0.55012772   
    860000   0.45516248     3.4793212     -0.52193843   
    861000   0.44727803     3.502038      -0.55186574   
    862000   0.45127385     3.5048856     -0.53079014   
    863000   0.45153295     3.4901907     -0.56634242   
    864000   0.44768886     3.4733466     -0.45052997   
    865000   0.45058852     3.5490382     -0.57738163   
    866000   0.44761824     3.4575704     -0.54480205   
    867000   0.45446816     3.5553573     -0.4917177    
    868000   0.44600687     3.4867116     -0.56300575   
    869000   0.4502179      3.5437064     -0.56528176   
    870000   0.4463527      3.5720736     -0.51792673   
    871000   0.44783073     3.5128879     -0.53876166   
    872000   0.44774107     3.543255      -0.51406051   
    873000   0.44903195     3.5098133     -0.51467497   
    874000   0.4522649      3.5517047     -0.49992963   
    875000   0.44988185     3.4869962     -0.46206389   
    876000   0.44592416     3.4515429     -0.57213642   
    877000   0.45457483     3.5208499     -0.55006198   
    878000   0.44737898     3.4575644     -0.47107008   
    879000   0.44905573     3.5182732     -0.51903957   
    880000   0.45385766     3.491893      -0.58185019   
    881000   0.44904374     3.4594273     -0.59575656   
    882000   0.45288945     3.5260175     -0.45482246   
    883000   0.44829735     3.4811061     -0.61406066   
    884000   0.45073523     3.5297748     -0.50603461   
    885000   0.44968737     3.4944641     -0.46228532   
    886000   0.44710606     3.5469623     -0.55890265   
    887000   0.45130221     3.540593      -0.56269535   
    888000   0.45243161     3.5086497     -0.50588636   
    889000   0.44953344     3.5217088     -0.52651441   
    890000   0.44779192     3.5302439     -0.60786745   
    891000   0.45199512     3.4806354     -0.4103459    
    892000   0.45391251     3.5133921     -0.49141748   
    893000   0.44880795     3.5018484     -0.4752705    
    894000   0.45129464     3.4758003     -0.49336392   
    895000   0.45322492     3.4932148     -0.46495925   
    896000   0.44897311     3.5415439     -0.51529904   
    897000   0.45146032     3.5168014     -0.4668519    
    898000   0.44956895     3.5084453     -0.51673494   
    899000   0.4492731      3.5176431     -0.54918634   
    900000   0.44945854     3.5274315     -0.58601357   
    901000   0.45187866     3.5120285     -0.54653018   
    902000   0.45217352     3.4828549     -0.53491742   
    903000   0.44986592     3.4993463     -0.51724611   
    904000   0.45425707     3.5174439     -0.59020103   
    905000   0.44634084     3.497527      -0.51783083   
    906000   0.45197834     3.4960981     -0.55727121   
    907000   0.44962798     3.5052707     -0.44617279   
    908000   0.449573       3.5032932     -0.54168497   
    909000   0.44666973     3.5410836     -0.511722     
    910000   0.44736909     3.5157807     -0.52506117   
    911000   0.44739011     3.5144071     -0.49972061   
    912000   0.45144507     3.5338536     -0.5680026    
    913000   0.44767695     3.4637452     -0.53317238   
    914000   0.45207311     3.5558217     -0.52048161   
    915000   0.44759262     3.5572036     -0.60916997   
    916000   0.4481263      3.4501072     -0.60435649   
    917000   0.45029916     3.5455453     -0.50272274   
    918000   0.44713858     3.4583864     -0.51221986   
    919000   0.4499099      3.5231119     -0.58599256   
    920000   0.44777467     3.5173247     -0.50518017   
    921000   0.44929441     3.4885832     -0.57446116   
    922000   0.44883184     3.4876007     -0.50275529   
    923000   0.45521006     3.460543      -0.57513284   
    924000   0.44519239     3.4582808     -0.54527081   
    925000   0.45763043     3.5322223     -0.51812686   
    926000   0.45214004     3.4551567     -0.56041757   
    927000   0.44855228     3.4982824     -0.51511175   
    928000   0.45632716     3.5385829     -0.59224449   
    929000   0.44143604     3.5438821     -0.59502748   
    930000   0.44995728     3.5162406     -0.50489413   
    931000   0.45006973     3.5290301     -0.49634533   
    932000   0.44683996     3.4725828     -0.52546904   
    933000   0.45381187     3.4937746     -0.55531376   
    934000   0.44540182     3.5371428     -0.63560805   
    935000   0.44776429     3.5570539     -0.60995936   
    936000   0.45086986     3.4777393     -0.55169674   
    937000   0.44803499     3.4595415     -0.54275807   
    938000   0.45543444     3.5310121     -0.4656496    
    939000   0.45158817     3.4847309     -0.54901168   
    940000   0.45359828     3.4902388     -0.50732719   
    941000   0.44891054     3.5459686     -0.62621773   
    942000   0.44796796     3.5330842     -0.57198668   
    943000   0.45189626     3.5106745     -0.50253523   
    944000   0.45431255     3.5437872     -0.60619208   
    945000   0.44748383     3.4941183     -0.53813878   
    946000   0.45310609     3.5838041     -0.53175517   
    947000   0.44665347     3.4801959     -0.45948999   
    948000   0.45339285     3.5471381     -0.46597056   
    949000   0.44301363     3.5709926     -0.50857164   
    950000   0.45229254     3.4963167     -0.46998134   
    951000   0.44965191     3.5421044     -0.52805969   
    952000   0.44668693     3.5262124     -0.4976313    
    953000   0.44978033     3.5203846     -0.45341232   
    954000   0.44884766     3.5283136     -0.48234423   
    955000   0.44678566     3.5073846     -0.54099814   
    956000   0.44991298     3.4994096     -0.47069731   
    957000   0.44652469     3.5002932     -0.45432603   
    958000   0.44766763     3.5071951     -0.48264993   
    959000   0.45404113     3.5301553     -0.51947887   
    960000   0.44546443     3.5368456     -0.58029766   
    961000   0.45051828     3.5767015     -0.55762101   
    962000   0.44941553     3.5456639     -0.46343986   
    963000   0.44929182     3.4591494     -0.49103536   
    964000   0.45188942     3.5180523     -0.63115945   
    965000   0.44997484     3.4544678     -0.54444447   
    966000   0.44837646     3.5153567     -0.50944536   
    967000   0.45018286     3.5422107     -0.63363513   
    968000   0.44711642     3.5494855     -0.60556404   
    969000   0.44984788     3.5096736     -0.51630795   
    970000   0.45170299     3.5338119     -0.51739662   
    971000   0.4495912      3.499674      -0.48672495   
    972000   0.44739246     3.5094196     -0.52406957   
    973000   0.44927646     3.4975531     -0.50969826   
    974000   0.44965335     3.5498295     -0.51157677   
    975000   0.45269749     3.48165       -0.59856265   
    976000   0.44787495     3.5167627     -0.59013821   
    977000   0.44817149     3.5299793     -0.46646619   
    978000   0.44628208     3.491114      -0.50084961   
    979000   0.45369        3.5284916     -0.5483792    
    980000   0.44887126     3.4696013     -0.57536286   
    981000   0.45178426     3.4835068     -0.54448887   
    982000   0.45023419     3.5483708     -0.51825532   
    983000   0.45230491     3.5074647     -0.49407674   
    984000   0.44845878     3.5652526     -0.56733529   
    985000   0.4482506      3.5521587     -0.54003986   
    986000   0.44766859     3.5406876     -0.52911782   
    987000   0.44458723     3.5173501     -0.47577657   
    988000   0.45082437     3.5188974     -0.48193995   
    989000   0.44778125     3.5177944     -0.5063042    
    990000   0.45162667     3.5255496     -0.51517228   
    991000   0.44756205     3.5162253     -0.57872847   
    992000   0.45347988     3.5029861     -0.51182847   
    993000   0.45045398     3.4937735     -0.52467495   
    994000   0.44817059     3.4911453     -0.50672104   
    995000   0.44990629     3.5385136     -0.54958281   
    996000   0.45351478     3.4407821     -0.54028625   
    997000   0.44764254     3.5215915     -0.47912151   
    998000   0.45284316     3.4793577     -0.52607805   
    999000   0.4472228      3.5128888     -0.50853593   
   1000000   0.45221571     3.5615047     -0.49850936   
   1001000   0.44933795     3.479659      -0.52307285   
   1002000   0.44771775     3.5109119     -0.46802369   
   1003000   0.45294989     3.5468785     -0.50169652   
   1004000   0.44713767     3.4500186     -0.50240705   
   1005000   0.45047593     3.5040784     -0.47663794   
   1006000   0.45381104     3.4938003     -0.5538031    
   1007000   0.45039937     3.4968606     -0.48069153   
   1008000   0.45341333     3.5269602     -0.49795713   
   1009000   0.45080358     3.5153287     -0.58445407   
   1010000   0.44943477     3.457033      -0.537773     
   1011000   0.45367997     3.5097258     -0.59874346   
   1012000   0.45338668     3.4545997     -0.53478887   
   1013000   0.44990976     3.5194653     -0.45786682   
   1014000   0.45113734     3.4899212     -0.53119889   
   1015000   0.44934112     3.5288929     -0.54624147   
   1016000   0.44737306     3.489733      -0.5071751    
   1017000   0.45234869     3.4663505     -0.52859569   
   1018000   0.44982914     3.4900787     -0.51296721   
   1019000   0.45124429     3.4777124     -0.49092872   
   1020000   0.45210421     3.5303962     -0.54683981   
   1021000   0.44754568     3.5045905     -0.56707875   
   1022000   0.44784933     3.474115      -0.46228603   
   1023000   0.45363109     3.5398507     -0.52627679   
   1024000   0.44243336     3.4732238     -0.52081098   
   1025000   0.45312941     3.542821      -0.52480287   
   1026000   0.44814378     3.4680013     -0.55990262   
   1027000   0.4498333      3.5112401     -0.52211856   
   1028000   0.45271723     3.5471019     -0.53390128   
   1029000   0.45079873     3.4708409     -0.53598292   
   1030000   0.44613445     3.5360039     -0.50067563   
   1031000   0.45400739     3.4842368     -0.52914076   
   1032000   0.4471484      3.539241      -0.51307198   
   1033000   0.44726445     3.4735373     -0.48754592   
   1034000   0.45455841     3.5650233     -0.53340278   
   1035000   0.44957383     3.4817479     -0.52415672   
   1036000   0.45383631     3.4978551     -0.56031851   
   1037000   0.4456812      3.5193179     -0.47470876   
   1038000   0.44967859     3.5362528     -0.53071801   
   1039000   0.4501629      3.5110691     -0.54155262   
   1040000   0.44612692     3.5326298     -0.60589912   
   1041000   0.45354215     3.5018532     -0.54613425   
   1042000   0.44717761     3.5017182     -0.59513347   
   1043000   0.4507283      3.5325018     -0.4803018    
   1044000   0.45208585     3.5238426     -0.54886726   
   1045000   0.44635206     3.5056587     -0.48913649   
   1046000   0.45039451     3.5208332     -0.47968184   
   1047000   0.4489648      3.5227576     -0.52275761   
   1048000   0.44176506     3.5247421     -0.48218898   
   1049000   0.45016084     3.4522781     -0.5105224    
   1050000   0.44461869     3.5378013     -0.50898174   
   1051000   0.44702015     3.4689907     -0.52175998   
   1052000   0.44818861     3.5192783     -0.57757925   
   1053000   0.45102434     3.4884148     -0.50781131   
   1054000   0.44752843     3.519097      -0.50099503   
   1055000   0.45373255     3.5180137     -0.4528987    
   1056000   0.44484922     3.5113747     -0.50720897   
   1057000   0.44579737     3.5112679     -0.55169557   
   1058000   0.45047045     3.511497      -0.54528576   
   1059000   0.44633082     3.4708052     -0.53944224   
   1060000   0.45116548     3.4706381     -0.44077077   
   1061000   0.45128183     3.5481629     -0.58118024   
   1062000   0.4424735      3.4875426     -0.51348579   
   1063000   0.45382906     3.5113571     -0.55291697   
   1064000   0.44582245     3.4755548     -0.60645485   
   1065000   0.4544039      3.5346204     -0.64189333   
   1066000   0.45038311     3.5475923     -0.57234739   
   1067000   0.44401146     3.5500219     -0.48451413   
   1068000   0.44987964     3.5437799     -0.61229925   
   1069000   0.44797299     3.4756265     -0.53185171   
   1070000   0.45368543     3.5995259     -0.54616546   
   1071000   0.44547966     3.4537516     -0.48366944   
   1072000   0.44693531     3.5136664     -0.53348292   
   1073000   0.45298051     3.5507698     -0.54242446   
   1074000   0.44553648     3.4280867     -0.50059332   
   1075000   0.45167922     3.5126219     -0.50270984   
   1076000   0.45168724     3.5213685     -0.48544213   
   1077000   0.45092211     3.5277633     -0.52137982   
   1078000   0.45101294     3.5223334     -0.5367983    
   1079000   0.45268776     3.4999668     -0.49636263   
   1080000   0.44655632     3.4578873     -0.51771315   
   1081000   0.45122608     3.5721952     -0.47756255   
   1082000   0.45326503     3.4969661     -0.42434835   
   1083000   0.44401002     3.526579      -0.59908809   
   1084000   0.44996192     3.5354164     -0.48492154   
   1085000   0.44792409     3.4827705     -0.45066035   
   1086000   0.44943795     3.5170286     -0.57485326   
   1087000   0.44624722     3.5672828     -0.62800641   
   1088000   0.44703521     3.4453805     -0.55563027   
   1089000   0.45463088     3.5084075     -0.51677672   
   1090000   0.44291859     3.5108754     -0.55383173   
   1091000   0.4506392      3.4904655     -0.52240475   
   1092000   0.45538709     3.4768451     -0.45891484   
   1093000   0.44974586     3.4810998     -0.53721893   
   1094000   0.44899962     3.5080152     -0.52475469   
   1095000   0.4500387      3.4937733     -0.5250927    
   1096000   0.45325831     3.5028513     -0.60977694   
   1097000   0.44782811     3.4778681     -0.46500983   
   1098000   0.44750646     3.4938992     -0.56196395   
   1099000   0.45069373     3.5179621     -0.5691245    
   1100000   0.44610967     3.5244043     -0.54530576   
   1101000   0.44982893     3.5405968     -0.56752867   
   1102000   0.44521504     3.5181978     -0.47979907   
   1103000   0.45180969     3.567215      -0.54570248   
   1104000   0.44309178     3.450554      -0.57572219   
   1105000   0.45494488     3.5256635     -0.55105174   
   1106000   0.45132302     3.5019587     -0.56012824   
   1107000   0.45148573     3.4466083     -0.50716866   
   1108000   0.45224117     3.5422041     -0.5542069    
   1109000   0.45026732     3.486924      -0.52596091   
   1110000   0.44788413     3.5550898     -0.5163931    
   1111000   0.44556209     3.5211285     -0.51079325   
   1112000   0.45462357     3.5069787     -0.54909944   
   1113000   0.45160133     3.5202834     -0.55295943   
   1114000   0.44844808     3.5160777     -0.48869481   
   1115000   0.4500625      3.5091731     -0.48920971   
   1116000   0.45151296     3.5272017     -0.54445866   
   1117000   0.44762986     3.4719568     -0.52163271   
   1118000   0.4510853      3.488089      -0.51181604   
   1119000   0.44443688     3.5067635     -0.60183019   
   1120000   0.45043629     3.4970857     -0.49384251   
   1121000   0.45786308     3.4962913     -0.511163     
   1122000   0.44738741     3.4663189     -0.56648395   
   1123000   0.44786651     3.5058678     -0.54395231   
   1124000   0.44706133     3.5523581     -0.57914043   
   1125000   0.44637944     3.5347257     -0.5221187    
   1126000   0.45184235     3.5298085     -0.57166005   
   1127000   0.44608509     3.4864013     -0.46619924   
   1128000   0.44796622     3.5312472     -0.4561271    
   1129000   0.4518755      3.4640371     -0.49690225   
   1130000   0.44807046     3.4623875     -0.51053878   
   1131000   0.45154425     3.5331691     -0.57795737   
   1132000   0.44958615     3.4534928     -0.46899241   
   1133000   0.45089246     3.4692804     -0.53579793   
   1134000   0.4536135      3.5345221     -0.49195545   
   1135000   0.45119533     3.4845603     -0.51004202   
   1136000   0.44666993     3.5131034     -0.55150367   
   1137000   0.44556144     3.478511      -0.60092442   
   1138000   0.45083979     3.5275846     -0.59766556   
   1139000   0.45098131     3.5554146     -0.60403522   
   1140000   0.44907141     3.5463676     -0.63879082   
   1141000   0.44602374     3.5416406     -0.60662814   
   1142000   0.45411031     3.4911846     -0.50867015   
   1143000   0.454897       3.5142158     -0.51439357   
   1144000   0.4510262      3.4915256     -0.50696172   
   1145000   0.45352277     3.5280995     -0.53590157   
   1146000   0.44435606     3.5146221     -0.51055748   
   1147000   0.45217532     3.5585242     -0.59724449   
   1148000   0.44967397     3.5117429     -0.53399086   
   1149000   0.44959493     3.4923692     -0.43581788   
   1150000   0.44708046     3.5344938     -0.47051239   
   1151000   0.45021425     3.5019748     -0.47852793   
   1152000   0.45201063     3.5095125     -0.51965632   
   1153000   0.44795215     3.4609651     -0.51409251   
   1154000   0.45451803     3.4944816     -0.50420129   
   1155000   0.44944919     3.477251      -0.46746061   
   1156000   0.44953512     3.4929237     -0.51536337   
   1157000   0.45059293     3.5007681     -0.47594398   
   1158000   0.44852825     3.4681191     -0.53850515   
   1159000   0.45445994     3.5340934     -0.55375032   
   1160000   0.4505449      3.4583815     -0.54763851   
   1161000   0.45133824     3.4842083     -0.52567414   
   1162000   0.44791521     3.4608329     -0.57717221   
   1163000   0.44783572     3.4050371     -0.53213661   
   1164000   0.45537314     3.4928441     -0.51006499   
   1165000   0.44574        3.4171952     -0.57401592   
   1166000   0.45161594     3.4682066     -0.61017133   
   1167000   0.45292945     3.5069401     -0.63104983   
   1168000   0.45273651     3.4597538     -0.58740496   
   1169000   0.44675822     3.5158531     -0.55816539   
   1170000   0.45359227     3.5028401     -0.55836309   
   1171000   0.45613554     3.5211975     -0.5866302    
   1172000   0.45040075     3.4570361     -0.51162908   
   1173000   0.45174515     3.4762011     -0.52718058   
   1174000   0.4493707      3.499746      -0.48273136   
   1175000   0.44173221     3.4756279     -0.51091604   
   1176000   0.45467476     3.5175142     -0.51460066   
   1177000   0.4510159      3.4219918     -0.52247846   
   1178000   0.45143778     3.5323687     -0.55215401   
   1179000   0.45110986     3.5035892     -0.5878303    
   1180000   0.44664295     3.5120359     -0.52219481   
   1181000   0.45240437     3.5629852     -0.58075803   
   1182000   0.44693965     3.488331      -0.55886376   
   1183000   0.45099424     3.4930223     -0.57993378   
   1184000   0.44792754     3.5028065     -0.49672239   
   1185000   0.44881548     3.513366      -0.4980223    
   1186000   0.44880755     3.4598299     -0.47976193   
   1187000   0.45690044     3.4494107     -0.44022153   
   1188000   0.45134832     3.5262979     -0.48779488   
   1189000   0.44867038     3.4408694     -0.54284203   
   1190000   0.45047304     3.5535837     -0.55544508   
   1191000   0.44639875     3.473146      -0.48775963   
   1192000   0.45208355     3.4928027     -0.60552273   
   1193000   0.45382251     3.4581313     -0.52943293   
   1194000   0.44707976     3.4894749     -0.5396934    
   1195000   0.4516434      3.4822648     -0.50264091   
   1196000   0.44975706     3.5041965     -0.39980684   
   1197000   0.44645552     3.4843528     -0.55885109   
   1198000   0.44840681     3.4964353     -0.45687456   
   1199000   0.4503454      3.4821764     -0.51635812   
   1200000   0.45204122     3.5009775     -0.52931375   
   1201000   0.45393995     3.4493043     -0.47333793   
   1202000   0.4454702      3.4798838     -0.5171421    
   1203000   0.44947318     3.546451      -0.53351965   
   1204000   0.44805543     3.5190661     -0.58101555   
   1205000   0.4457705      3.4577215     -0.57011512   
   1206000   0.4575603      3.45632       -0.55535388   
   1207000   0.44708533     3.4805799     -0.55101038   
   1208000   0.44850689     3.5437694     -0.60345139   
   1209000   0.4508684      3.5038199     -0.54888826   
   1210000   0.45030269     3.4513467     -0.59301541   
   1211000   0.45332583     3.5135393     -0.4956253    
   1212000   0.44782722     3.4879303     -0.54836904   
   1213000   0.44791698     3.5340858     -0.63765882   
   1214000   0.44702948     3.5241175     -0.55961646   
   1215000   0.44660427     3.4762837     -0.5895391    
   1216000   0.45046357     3.5019393     -0.58789099   
   1217000   0.4429325      3.5655317     -0.52971352   
   1218000   0.44887523     3.5260796     -0.53778221   
   1219000   0.44771889     3.5088978     -0.49987083   
   1220000   0.45275125     3.4860469     -0.54843526   
   1221000   0.45134885     3.5244085     -0.56052438   
   1222000   0.44879929     3.4951276     -0.48123588   
   1223000   0.44746871     3.5186408     -0.47751073   
   1224000   0.44813104     3.5362175     -0.56447922   
   1225000   0.44502846     3.5019728     -0.49855319   
   1226000   0.45525843     3.487015      -0.51366787   
   1227000   0.44715264     3.442355      -0.51012413   
   1228000   0.45178423     3.5090796     -0.52024524   
   1229000   0.45160285     3.5176143     -0.4994247    
   1230000   0.44256685     3.4974614     -0.4529296    
   1231000   0.45130553     3.5432995     -0.52670161   
   1232000   0.4473761      3.453809      -0.43742761   
   1233000   0.4523841      3.5227693     -0.49480754   
   1234000   0.45052017     3.4811298     -0.53202213   
   1235000   0.44731411     3.4667799     -0.54009732   
   1236000   0.45219369     3.5119302     -0.48592096   
   1237000   0.44944112     3.4849424     -0.55079348   
   1238000   0.44694784     3.516901      -0.47575808   
   1239000   0.45060241     3.5163224     -0.52484059   
   1240000   0.44758543     3.4808713     -0.47910958   
   1241000   0.45142841     3.4982778     -0.50396402   
   1242000   0.45086778     3.5073355     -0.5244087    
   1243000   0.4422322      3.4851995     -0.53598381   
   1244000   0.45313035     3.5064302     -0.54252085   
   1245000   0.447143       3.4841446     -0.55187966   
   1246000   0.45073445     3.507844      -0.50912662   
   1247000   0.45632744     3.4374421     -0.52131943   
   1248000   0.45092038     3.4545026     -0.54368361   
   1249000   0.44862315     3.5041948     -0.569419     
   1250000   0.45002081     3.5088583     -0.45702181   
   1251000   0.44890572     3.5450682     -0.48208082   
   1252000   0.44629077     3.5402593     -0.50932038   
   1253000   0.45128132     3.4864856     -0.4762258    
   1254000   0.44658186     3.5131332     -0.49067196   
   1255000   0.44857156     3.4754258     -0.50693674   
   1256000   0.45198973     3.5244044     -0.50326169   
   1257000   0.44859717     3.4918056     -0.57521617   
   1258000   0.45353928     3.4702849     -0.5842752    
   1259000   0.45163511     3.5117373     -0.48080896   
   1260000   0.4490784      3.5210607     -0.51114265   
   1261000   0.45362836     3.5258129     -0.55199317   
   1262000   0.45358887     3.4620886     -0.58205315   
   1263000   0.44880657     3.560291      -0.53952815   
   1264000   0.45024818     3.5682028     -0.53658486   
   1265000   0.4491478      3.4769393     -0.43412998   
   1266000   0.44998022     3.5351089     -0.47923479   
   1267000   0.451786       3.5471321     -0.51914218   
   1268000   0.44905976     3.5021904     -0.49809155   
   1269000   0.45147754     3.476319      -0.50687228   
   1270000   0.45240611     3.5149285     -0.50583282   
   1271000   0.45177163     3.506036      -0.53977051   
   1272000   0.44615266     3.5141144     -0.54860407   
   1273000   0.45040654     3.5393818     -0.51092701   
   1274000   0.44891197     3.4888948     -0.62801051   
   1275000   0.44962281     3.5206697     -0.52681379   
   1276000   0.45343728     3.4886984     -0.53456209   
   1277000   0.45020742     3.5178734     -0.54315987   
   1278000   0.44395087     3.5311524     -0.58799501   
   1279000   0.45160832     3.5227849     -0.54951454   
   1280000   0.44595831     3.5130226     -0.55537698   
   1281000   0.45275977     3.5208597     -0.55474936   
   1282000   0.44873034     3.5028887     -0.49686278   
   1283000   0.44981808     3.4965331     -0.57125921   
   1284000   0.45221809     3.4976218     -0.48815804   
   1285000   0.45096867     3.4709475     -0.49014198   
   1286000   0.44902189     3.4479036     -0.56015872   
   1287000   0.45276781     3.5169888     -0.50090157   
   1288000   0.45029606     3.4436593     -0.52997721   
   1289000   0.45379096     3.5016969     -0.52731197   
   1290000   0.45196778     3.5005623     -0.6115187    
   1291000   0.44820316     3.5103908     -0.52205702   
   1292000   0.44897359     3.5497982     -0.53550374   
   1293000   0.44993597     3.4927743     -0.54530061   
   1294000   0.45313668     3.5224135     -0.45350346   
   1295000   0.44873892     3.4897624     -0.54388708   
   1296000   0.45127451     3.5335723     -0.5232947    
   1297000   0.45154895     3.5108792     -0.51591634   
   1298000   0.44752121     3.5344395     -0.55809229   
   1299000   0.45156696     3.4741717     -0.54307733   
   1300000   0.45123366     3.5630891     -0.55069056   
   1301000   0.44888435     3.5193857     -0.54006488   
   1302000   0.45025927     3.5288036     -0.56123519   
   1303000   0.45033096     3.5346863     -0.54020633   
   1304000   0.44760132     3.5152454     -0.50328112   
   1305000   0.44914846     3.5596757     -0.43180216   
   1306000   0.45498259     3.4883934     -0.49848462   
   1307000   0.45253487     3.4938516     -0.53114628   
   1308000   0.44852052     3.4787456     -0.50581379   
   1309000   0.45146602     3.514903      -0.58643244   
   1310000   0.44740127     3.4617044     -0.59365653   
   1311000   0.4538362      3.4812273     -0.50997993   
   1312000   0.45223626     3.4811242     -0.54466243   
   1313000   0.44603432     3.4714812     -0.54363736   
   1314000   0.45292577     3.5475236     -0.52989193   
   1315000   0.44431428     3.5047492     -0.47849014   
   1316000   0.45197375     3.5200387     -0.51326117   
   1317000   0.44812199     3.4858695     -0.45466337   
   1318000   0.4502129      3.5116949     -0.5249758    
   1319000   0.45062428     3.5199449     -0.4145119    
   1320000   0.44685443     3.5076475     -0.52732299   
   1321000   0.44958127     3.4828973     -0.53594504   
   1322000   0.45121605     3.4932382     -0.55685978   
   1323000   0.45262593     3.4644579     -0.53096842   
   1324000   0.45223553     3.5365247     -0.5390721    
   1325000   0.4487524      3.4806439     -0.56483788   
   1326000   0.45445206     3.4807843     -0.58798315   
   1327000   0.45267857     3.5230462     -0.57476448   
   1328000   0.44884902     3.4987673     -0.51740232   
   1329000   0.44985369     3.5452215     -0.64905027   
   1330000   0.44803443     3.5066075     -0.52083578   
   1331000   0.45114991     3.4671496     -0.54400399   
   1332000   0.45172445     3.5061052     -0.46438413   
   1333000   0.44491115     3.489655      -0.47000633   
   1334000   0.45226191     3.5299443     -0.52273664   
   1335000   0.44695371     3.4413036     -0.53201343   
   1336000   0.45286145     3.5124408     -0.52041178   
   1337000   0.44779221     3.4962455     -0.46270013   
   1338000   0.44655148     3.4652284     -0.55972741   
   1339000   0.45041864     3.5441561     -0.56283838   
   1340000   0.44354317     3.4709192     -0.53172607   
   1341000   0.44891819     3.4591265     -0.49979203   
   1342000   0.44921446     3.4995512     -0.54263187   
   1343000   0.45134412     3.5084997     -0.5578073    
   1344000   0.45262511     3.4853116     -0.57083676   
   1345000   0.4495898      3.4741161     -0.57243854   
   1346000   0.44716658     3.5224479     -0.54462025   
   1347000   0.45133425     3.4887524     -0.49647152   
   1348000   0.44860153     3.4549137     -0.53856535   
   1349000   0.45231382     3.4822105     -0.54118847   
   1350000   0.45259511     3.4533226     -0.5605839    
   1351000   0.45208129     3.4907322     -0.53445846   
   1352000   0.45171694     3.4842684     -0.54160948   
   1353000   0.44611038     3.4703778     -0.47069438   
   1354000   0.45225204     3.4920345     -0.48493039   
   1355000   0.44988947     3.4701252     -0.49585914   
   1356000   0.45096086     3.505775      -0.53415142   
   1357000   0.44802167     3.4885152     -0.55788127   
   1358000   0.45100727     3.4931179     -0.53206857   
   1359000   0.44980458     3.5183583     -0.59036651   
   1360000   0.44968295     3.5250687     -0.51082833   
   1361000   0.45532178     3.536312      -0.53850054   
   1362000   0.44596857     3.4922234     -0.51012704   
   1363000   0.45308522     3.555439      -0.52493543   
   1364000   0.4481864      3.5268382     -0.63659982   
   1365000   0.45019669     3.5478758     -0.49936694   
   1366000   0.45159059     3.5494442     -0.57373322   
   1367000   0.44302681     3.5426301     -0.47343848   
   1368000   0.45503931     3.520299      -0.55532465   
   1369000   0.447762       3.5015234     -0.50402226   
   1370000   0.44661142     3.5258288     -0.59540209   
   1371000   0.44924427     3.5284105     -0.53302435   
   1372000   0.45133344     3.5091537     -0.52796172   
   1373000   0.45154398     3.5539114     -0.56679547   
   1374000   0.44734342     3.5092954     -0.55414708   
   1375000   0.45111307     3.5612565     -0.52650988   
   1376000   0.45312287     3.5912667     -0.43498811   
   1377000   0.44686594     3.4645892     -0.4907159    
   1378000   0.45264115     3.5923986     -0.44643728   
   1379000   0.44328617     3.5123552     -0.46328681   
   1380000   0.45436695     3.5539295     -0.50248603   
   1381000   0.44721561     3.5277315     -0.54708309   
   1382000   0.44801313     3.499902      -0.60902461   
   1383000   0.45464124     3.498318      -0.49343506   
   1384000   0.44847779     3.4223628     -0.51818199   
   1385000   0.45424372     3.5249525     -0.52397814   
   1386000   0.44696485     3.4930991     -0.56008187   
   1387000   0.4493105      3.517287      -0.5479016    
   1388000   0.45404209     3.495825      -0.49466419   
   1389000   0.4490225      3.5441775     -0.58159783   
   1390000   0.45114792     3.5302244     -0.5049231    
   1391000   0.44903814     3.5129227     -0.53828899   
   1392000   0.44696745     3.5259494     -0.48495481   
   1393000   0.45146177     3.540849      -0.56114491   
   1394000   0.44967601     3.5351974     -0.49631753   
   1395000   0.45317449     3.5071732     -0.56694719   
   1396000   0.45117538     3.4811134     -0.4999747    
   1397000   0.44993294     3.4425429     -0.51738087   
   1398000   0.45239535     3.4884078     -0.53026075   
   1399000   0.4474906      3.4321206     -0.52746504   
   1400000   0.44969371     3.4485759     -0.54067941   
   1401000   0.45505768     3.4939769     -0.54210967   
   1402000   0.44495938     3.4732378     -0.47603911   
   1403000   0.45221128     3.5024974     -0.54357083   
   1404000   0.44511004     3.4688509     -0.53626263   
   1405000   0.45188876     3.5272032     -0.53685728   
   1406000   0.44732553     3.4913523     -0.52183228   
   1407000   0.45220391     3.497023      -0.49763982   
   1408000   0.45151844     3.5165176     -0.4894673    
   1409000   0.44409345     3.4769944     -0.45300179   
   1410000   0.45414829     3.499084      -0.5026078    
   1411000   0.44795689     3.449371      -0.45215859   
   1412000   0.45153049     3.5340814     -0.55829595   
   1413000   0.4497606      3.5028439     -0.54129057   
   1414000   0.44987726     3.4956285     -0.56434099   
   1415000   0.45227814     3.5141101     -0.53875365   
   1416000   0.45221627     3.4406924     -0.48969907   
   1417000   0.44935336     3.4929595     -0.58715513   
   1418000   0.4466627      3.4942414     -0.51759689   
   1419000   0.45357879     3.5055103     -0.52555394   
   1420000   0.44898629     3.4512697     -0.58101053   
   1421000   0.45053752     3.5416669     -0.5222836    
   1422000   0.44927629     3.5060143     -0.54389265   
   1423000   0.45076048     3.4379327     -0.46031637   
   1424000   0.45521822     3.5388446     -0.53348945   
   1425000   0.45263073     3.4507034     -0.56334108   
   1426000   0.44681987     3.4944786     -0.54297915   
   1427000   0.45558539     3.5222102     -0.50439873   
   1428000   0.44273177     3.4889679     -0.54023709   
   1429000   0.45554597     3.52833       -0.48164064   
   1430000   0.44881682     3.4826814     -0.49818002   
   1431000   0.4490589      3.4832443     -0.49416264   
   1432000   0.45182997     3.4956065     -0.55783754   
   1433000   0.4480816      3.5164047     -0.52153364   
   1434000   0.44800687     3.5015897     -0.53188046   
   1435000   0.45038888     3.5404135     -0.55319818   
   1436000   0.44746812     3.5132894     -0.48601219   
   1437000   0.44777669     3.4994592     -0.517787     
   1438000   0.44903545     3.5334366     -0.55435206   
   1439000   0.44857098     3.4663893     -0.5221239    
   1440000   0.45281139     3.5185117     -0.49994479   
   1441000   0.44826489     3.5281579     -0.58922087   
   1442000   0.44705361     3.4944309     -0.57166736   
   1443000   0.4498139      3.5267779     -0.48996221   
   1444000   0.44887124     3.4709328     -0.43817776   
   1445000   0.44922696     3.5313852     -0.49691703   
   1446000   0.45041041     3.520128      -0.50914598   
   1447000   0.44892998     3.4782923     -0.49413158   
   1448000   0.44901658     3.5399301     -0.59553241   
   1449000   0.44415736     3.4667236     -0.56959484   
   1450000   0.45019393     3.5265166     -0.45941383   
   1451000   0.4523098      3.48518       -0.50933568   
   1452000   0.44919045     3.5069123     -0.46766047   
   1453000   0.45469312     3.5206265     -0.54552166   
   1454000   0.44552032     3.4888925     -0.49133955   
   1455000   0.45102214     3.4739064     -0.5469813    
   1456000   0.45107492     3.4830869     -0.4533412    
   1457000   0.4496496      3.4741074     -0.45831287   
   1458000   0.45493617     3.4352475     -0.51082406   
   1459000   0.45036625     3.5009882     -0.52173332   
   1460000   0.4490075      3.46911       -0.5171988    
   1461000   0.45227821     3.5177845     -0.54908473   
   1462000   0.44981427     3.4941947     -0.50036097   
   1463000   0.44993661     3.5345072     -0.49298297   
   1464000   0.44543516     3.49688       -0.43821484   
   1465000   0.45250115     3.4939447     -0.48539144   
   1466000   0.45494924     3.4699751     -0.51091982   
   1467000   0.44921184     3.5243706     -0.55065442   
   1468000   0.45305934     3.468759      -0.55945725   
   1469000   0.44681561     3.5028707     -0.59662713   
   1470000   0.45078784     3.5497326     -0.52095599   
   1471000   0.44896954     3.4907741     -0.60198606   
   1472000   0.45040183     3.495948      -0.65746654   
   1473000   0.44793704     3.5170471     -0.47550971   
   1474000   0.44794216     3.5073475     -0.54882601   
   1475000   0.45274677     3.5411569     -0.57215796   
   1476000   0.44723679     3.5051544     -0.55546536   
   1477000   0.44877453     3.5499624     -0.57718554   
   1478000   0.45120385     3.5358551     -0.52318186   
   1479000   0.45037795     3.5149076     -0.60302094   
   1480000   0.4488084      3.4631046     -0.53148084   
   1481000   0.45341099     3.5267859     -0.49333438   
   1482000   0.44841451     3.5277263     -0.59512755   
   1483000   0.4517072      3.5149419     -0.51839844   
   1484000   0.4476964      3.5073551     -0.57317089   
   1485000   0.4503383      3.4919888     -0.51140162   
   1486000   0.45149361     3.5323379     -0.49883567   
   1487000   0.44944741     3.4868587     -0.51812955   
   1488000   0.4559191      3.5295209     -0.56337667   
   1489000   0.44428276     3.4688631     -0.5573189    
   1490000   0.45660244     3.5173373     -0.4901137    
   1491000   0.44821517     3.5045053     -0.50758962   
   1492000   0.44566965     3.518996      -0.51545506   
   1493000   0.45084974     3.5236103     -0.51059739   
   1494000   0.44868911     3.4911234     -0.49998885   
   1495000   0.45727603     3.5192413     -0.48618305   
   1496000   0.45072048     3.4583346     -0.5712396    
   1497000   0.45150378     3.5115753     -0.57278226   
   1498000   0.45141391     3.4912371     -0.48674503   
   1499000   0.4497335      3.4686087     -0.5016684    
   1500000   0.4480011      3.5457808     -0.56816184   
   1501000   0.45113704     3.4499289     -0.54559039   
   1502000   0.44884037     3.5322488     -0.51997118   
   1503000   0.45172244     3.5162745     -0.55714039   
   1504000   0.45142983     3.5271654     -0.52317995   
   1505000   0.45055673     3.509016      -0.59463878   
   1506000   0.45206333     3.485164      -0.64450497   
   1507000   0.44951253     3.508039      -0.53410065   
   1508000   0.4526848      3.4614632     -0.57495786   
   1509000   0.45036056     3.5281745     -0.55576694   
   1510000   0.44467013     3.4924669     -0.42717143   
   1511000   0.44932973     3.4992375     -0.52333022   
   1512000   0.45037939     3.6145514     -0.56673915   
   1513000   0.44960429     3.4776219     -0.56000743   
   1514000   0.44640894     3.5243772     -0.54928177   
   1515000   0.45278628     3.5551023     -0.58250787   
   1516000   0.44841402     3.4894628     -0.52034717   
   1517000   0.45407814     3.5212519     -0.50182994   
   1518000   0.44996888     3.5131785     -0.48712089   
   1519000   0.44513926     3.5658591     -0.56944467   
   1520000   0.45268838     3.5197776     -0.49708226   
   1521000   0.44952134     3.4779035     -0.43723362   
   1522000   0.44861161     3.4610833     -0.45966644   
   1523000   0.45407468     3.4666905     -0.50075904   
   1524000   0.45138547     3.4389793     -0.49624541   
   1525000   0.44858544     3.4692161     -0.60149826   
   1526000   0.45725425     3.4637692     -0.51313155   
   1527000   0.44639628     3.4369024     -0.54280797   
   1528000   0.45382359     3.5550687     -0.48326805   
   1529000   0.4477059      3.4652145     -0.58743948   
   1530000   0.45144276     3.491648      -0.50694565   
   1531000   0.44895298     3.503718      -0.62373841   
   1532000   0.44769856     3.4901077     -0.5417996    
   1533000   0.45275294     3.4849786     -0.47052228   
   1534000   0.45220667     3.4804847     -0.50639186   
   1535000   0.45125216     3.4857388     -0.45554965   
   1536000   0.44997595     3.4707734     -0.52150311   
   1537000   0.45318018     3.4630553     -0.57490535   
   1538000   0.45134121     3.5072454     -0.55657484   
   1539000   0.4488696      3.5635943     -0.59409495   
   1540000   0.44889541     3.4657716     -0.48958887   
   1541000   0.45261363     3.5373851     -0.51485494   
   1542000   0.45332675     3.5289381     -0.56104104   
   1543000   0.44876299     3.5617145     -0.56665865   
   1544000   0.4523021      3.5595221     -0.52155866   
   1545000   0.44834007     3.4867804     -0.47884699   
   1546000   0.45057054     3.5474301     -0.39491581   
   1547000   0.44974568     3.5131413     -0.55000137   
   1548000   0.44996407     3.5102662     -0.46164805   
   1549000   0.4505865      3.4763152     -0.47624267   
   1550000   0.44974613     3.4934181     -0.46396198   
   1551000   0.44828429     3.5155902     -0.48986213   
   1552000   0.449991       3.5138268     -0.46831978   
   1553000   0.44551246     3.5741108     -0.59386455   
   1554000   0.44997451     3.522719      -0.5614582    
   1555000   0.44846249     3.5016327     -0.48646292   
   1556000   0.45144964     3.502455      -0.48461889   
   1557000   0.45109097     3.4572559     -0.49238262   
   1558000   0.45041002     3.5079287     -0.52726      
   1559000   0.44779041     3.5100456     -0.53650028   
   1560000   0.44989255     3.5022375     -0.49544827   
   1561000   0.45423874     3.4849472     -0.57379027   
   1562000   0.44899574     3.5305876     -0.56502153   
   1563000   0.44758413     3.5180285     -0.50069478   
   1564000   0.4511548      3.4868786     -0.55517245   
   1565000   0.45592769     3.5111023     -0.59527006   
   1566000   0.44570085     3.4775528     -0.51727288   
   1567000   0.45366389     3.5491119     -0.57542964   
   1568000   0.44729461     3.4432316     -0.52060405   
   1569000   0.45154671     3.4856953     -0.52318488   
   1570000   0.45475967     3.510713      -0.49513686   
   1571000   0.44306227     3.4672535     -0.44721683   
   1572000   0.45513544     3.5288798     -0.4663629    
   1573000   0.44552647     3.424258      -0.49886095   
   1574000   0.45031882     3.4885823     -0.50637785   
   1575000   0.45215049     3.4794067     -0.43481944   
   1576000   0.44697559     3.4718332     -0.37830532   
   1577000   0.45366684     3.5097193     -0.50981898   
   1578000   0.44590269     3.4770069     -0.51174812   
   1579000   0.4519543      3.4851107     -0.46203132   
   1580000   0.44642037     3.5186075     -0.56876268   
   1581000   0.45064532     3.4511326     -0.48595464   
   1582000   0.45105438     3.5215612     -0.51717639   
   1583000   0.45219675     3.4593639     -0.4852907    
   1584000   0.45056384     3.5189384     -0.55193798   
   1585000   0.44992231     3.4804486     -0.46878377   
   1586000   0.45085337     3.4722552     -0.44844122   
   1587000   0.45034675     3.5125313     -0.53516195   
   1588000   0.44648779     3.4635089     -0.54038439   
   1589000   0.44974604     3.5000381     -0.48018209   
   1590000   0.44866406     3.5165038     -0.53586626   
   1591000   0.45048229     3.4977395     -0.46505747   
   1592000   0.44974505     3.5058819     -0.51245641   
   1593000   0.44893728     3.5127059     -0.541312     
   1594000   0.44793867     3.5019696     -0.51715059   
   1595000   0.45084742     3.5045867     -0.53203735   
   1596000   0.45371987     3.4936971     -0.49521606   
   1597000   0.45195285     3.5144937     -0.50377478   
   1598000   0.45106638     3.5096603     -0.59415176   
   1599000   0.4468671      3.4592687     -0.46510318   
   1600000   0.45403165     3.5429015     -0.5741373    
   1601000   0.44682763     3.4489889     -0.54556665   
   1602000   0.45169544     3.5330862     -0.55145057   
   1603000   0.45276914     3.523672      -0.50684425   
   1604000   0.44489028     3.4796063     -0.4658896    
   1605000   0.45228997     3.5516946     -0.48360382   
   1606000   0.44759066     3.3923997     -0.52788147   
   1607000   0.44764637     3.5408556     -0.48011903   
   1608000   0.45446056     3.5237157     -0.52943579   
   1609000   0.44828009     3.4557243     -0.56288037   
   1610000   0.44980318     3.5402768     -0.60124124   
   1611000   0.44812771     3.5193661     -0.54733399   
   1612000   0.44635164     3.5130233     -0.60090649   
   1613000   0.45152221     3.530615      -0.51846885   
   1614000   0.44873284     3.4919364     -0.52399038   
   1615000   0.44815511     3.5650476     -0.48711369   
   1616000   0.45132047     3.5233306     -0.42510032   
   1617000   0.45145073     3.4984649     -0.52348403   
   1618000   0.44702342     3.5191751     -0.46495808   
   1619000   0.45148093     3.4527794     -0.52623168   
   1620000   0.45212334     3.4756375     -0.53088672   
   1621000   0.44693215     3.4967249     -0.47644115   
   1622000   0.44594965     3.5181325     -0.52209142   
   1623000   0.44883112     3.5047414     -0.49759024   
   1624000   0.44658293     3.5278269     -0.59559753   
   1625000   0.45417534     3.520611      -0.56145323   
   1626000   0.44698038     3.4927993     -0.52880078   
   1627000   0.44985666     3.4854824     -0.52367455   
   1628000   0.4536787      3.4768164     -0.48102259   
   1629000   0.44378037     3.4745541     -0.4733436    
   1630000   0.4519304      3.5237778     -0.50568372   
   1631000   0.44879796     3.4768971     -0.52909508   
   1632000   0.44924268     3.4607213     -0.47679066   
   1633000   0.45156371     3.497326      -0.50712544   
   1634000   0.44925932     3.506278      -0.39651385   
   1635000   0.44925322     3.4633418     -0.48960388   
   1636000   0.44940622     3.5022437     -0.61014972   
   1637000   0.44670877     3.4874849     -0.69162072   
   1638000   0.4470902      3.5495174     -0.58229317   
   1639000   0.44998602     3.5142583     -0.61755879   
   1640000   0.44976014     3.4925768     -0.63184643   
   1641000   0.45661639     3.5943787     -0.54328335   
   1642000   0.44955988     3.4769406     -0.52919385   
   1643000   0.44986344     3.5949466     -0.54091094   
   1644000   0.44928884     3.533711      -0.52259904   
   1645000   0.45052116     3.511426      -0.50484057   
   1646000   0.4489387      3.5275292     -0.51916983   
   1647000   0.44804175     3.5216273     -0.49351868   
   1648000   0.45091459     3.5099799     -0.42947932   
   1649000   0.45237714     3.4707534     -0.47118298   
   1650000   0.45148931     3.4818089     -0.59285318   
   1651000   0.44726452     3.4448762     -0.55978719   
   1652000   0.44711426     3.5045029     -0.55678549   
   1653000   0.44732485     3.4859976     -0.52341506   
   1654000   0.45286226     3.5256731     -0.56778553   
   1655000   0.45120985     3.4846265     -0.56150151   
   1656000   0.44627312     3.5716069     -0.59825594   
   1657000   0.45115163     3.5597028     -0.52531967   
   1658000   0.45132809     3.5122284     -0.50824967   
   1659000   0.45405137     3.5518754     -0.54920029   
   1660000   0.45057251     3.4718248     -0.61121674   
   1661000   0.45220606     3.5481445     -0.5215776    
   1662000   0.44699926     3.5160546     -0.56508277   
   1663000   0.44601416     3.4789678     -0.53926609   
   1664000   0.45323487     3.5118373     -0.60842084   
   1665000   0.44486461     3.4608657     -0.59852515   
   1666000   0.45363125     3.5481604     -0.56879318   
   1667000   0.45229819     3.5043194     -0.59253579   
   1668000   0.4495626      3.5424014     -0.55940753   
   1669000   0.44602433     3.5384808     -0.55157181   
   1670000   0.45039015     3.551124      -0.50403675   
   1671000   0.45086723     3.5339251     -0.4737258    
   1672000   0.45275458     3.5003242     -0.54849233   
   1673000   0.44973431     3.5422401     -0.52954905   
   1674000   0.45197327     3.4509758     -0.4615806    
   1675000   0.4483423      3.5256678     -0.50331858   
   1676000   0.44895445     3.4820766     -0.51045233   
   1677000   0.44998385     3.5015369     -0.48322454   
   1678000   0.44529505     3.5307317     -0.5949077    
   1679000   0.45012438     3.5148827     -0.47344169   
   1680000   0.45389822     3.4584082     -0.48372765   
   1681000   0.45192716     3.4588628     -0.42206268   
   1682000   0.45185283     3.4594146     -0.48553901   
   1683000   0.45083379     3.4843294     -0.5523148    
   1684000   0.45094871     3.466742      -0.54253221   
   1685000   0.45076895     3.4568713     -0.55181703   
   1686000   0.45040221     3.4891341     -0.53163975   
   1687000   0.44952965     3.5634523     -0.5906659    
   1688000   0.44918204     3.552562      -0.55991544   
   1689000   0.45327654     3.5127398     -0.55268919   
   1690000   0.45064527     3.5579003     -0.50260531   
   1691000   0.44801464     3.5254119     -0.45679852   
   1692000   0.44576931     3.5224515     -0.547879     
   1693000   0.45498091     3.5205374     -0.56855498   
   1694000   0.44867059     3.5194462     -0.52592204   
   1695000   0.44965287     3.5008883     -0.58466328   
   1696000   0.45041646     3.493062      -0.51829204   
   1697000   0.45106115     3.48431       -0.53292038   
   1698000   0.45145673     3.5641086     -0.56643207   
   1699000   0.45181217     3.4969522     -0.57004121   
   1700000   0.45061259     3.4695471     -0.55064458   
   1701000   0.45464379     3.5110649     -0.50308798   
   1702000   0.44738047     3.4852977     -0.56564062   
   1703000   0.4507913      3.5135349     -0.51181992   
   1704000   0.44912913     3.4960148     -0.49218653   
   1705000   0.45189887     3.482714      -0.4921052    
   1706000   0.44987553     3.4858989     -0.45275748   
   1707000   0.44629979     3.4887089     -0.50126515   
   1708000   0.45369277     3.5240447     -0.54528202   
   1709000   0.45145268     3.4466782     -0.5419542    
   1710000   0.45053036     3.4936727     -0.48521278   
   1711000   0.45440343     3.5038784     -0.48141864   
   1712000   0.44792667     3.462141      -0.50505303   
   1713000   0.44497598     3.5101167     -0.58191513   
   1714000   0.45832239     3.5351631     -0.55885968   
   1715000   0.44943252     3.4407507     -0.55575449   
   1716000   0.45385099     3.554727      -0.50446708   
   1717000   0.44391593     3.4915137     -0.51796788   
   1718000   0.45088563     3.5887844     -0.41980662   
   1719000   0.44923421     3.5026095     -0.57161454   
   1720000   0.44529973     3.4966761     -0.53310358   
   1721000   0.45084132     3.5509209     -0.44802815   
   1722000   0.4539266      3.4852483     -0.46369214   
   1723000   0.44881981     3.5504648     -0.46279165   
   1724000   0.45243359     3.5424664     -0.46362646   
   1725000   0.45079732     3.5021821     -0.47323677   
   1726000   0.44631084     3.4851905     -0.54289166   
   1727000   0.45511132     3.5630313     -0.4696446    
   1728000   0.44773395     3.462593      -0.50489226   
   1729000   0.44964533     3.5511917     -0.49447963   
   1730000   0.45000664     3.4781816     -0.49271735   
   1731000   0.44965249     3.4677006     -0.53236934   
   1732000   0.4508053      3.539577      -0.51671767   
   1733000   0.44806542     3.5349069     -0.51055741   
   1734000   0.44499387     3.4783572     -0.53755005   
   1735000   0.45258814     3.4921142     -0.50191658   
   1736000   0.45412674     3.5065624     -0.53236323   
   1737000   0.44741282     3.4958676     -0.52003693   
   1738000   0.45249738     3.5395317     -0.45361593   
   1739000   0.4541445      3.4873221     -0.53975701   
   1740000   0.45087464     3.469582      -0.47002058   
   1741000   0.44969935     3.4779061     -0.4979871    
   1742000   0.45260946     3.4153996     -0.51977469   
   1743000   0.45334001     3.5243678     -0.56954265   
   1744000   0.44626708     3.4907688     -0.5713681    
   1745000   0.44931196     3.5015614     -0.53777073   
   1746000   0.45280493     3.5011921     -0.57287927   
   1747000   0.4483449      3.4840546     -0.43179153   
   1748000   0.45052251     3.5215453     -0.56944181   
   1749000   0.4475639      3.5185657     -0.52714455   
   1750000   0.45273676     3.5173048     -0.55752534   
   1751000   0.451578       3.4754313     -0.53746462   
   1752000   0.45097658     3.490821      -0.47425901   
   1753000   0.45091463     3.5102575     -0.6353614    
   1754000   0.45140764     3.5253875     -0.5665184    
   1755000   0.45022828     3.4507682     -0.50594703   
   1756000   0.45357292     3.4987835     -0.49756732   
   1757000   0.44808698     3.5187757     -0.50144422   
   1758000   0.44396894     3.4731652     -0.52448507   
   1759000   0.45274203     3.5239048     -0.4887404    
   1760000   0.44707731     3.4980836     -0.55918525   
   1761000   0.45093314     3.5104438     -0.49228248   
   1762000   0.45459399     3.5228999     -0.50817973   
   1763000   0.45000488     3.5144372     -0.43072113   
   1764000   0.45011272     3.4897364     -0.53738246   
   1765000   0.45503859     3.5009748     -0.54523634   
   1766000   0.44928527     3.4992451     -0.51074344   
   1767000   0.45251221     3.4622466     -0.540308     
   1768000   0.45118348     3.5409        -0.56356645   
   1769000   0.44941708     3.5225556     -0.49957987   
   1770000   0.45301003     3.4800424     -0.45357886   
   1771000   0.44681865     3.4999143     -0.56513939   
   1772000   0.4498339      3.5084727     -0.50299452   
   1773000   0.45082265     3.5025722     -0.56537273   
   1774000   0.4510116      3.4937442     -0.57530579   
   1775000   0.4541141      3.5259401     -0.56965314   
   1776000   0.44661368     3.4784603     -0.54926478   
   1777000   0.45148358     3.5226967     -0.52550941   
   1778000   0.44920572     3.4594741     -0.5282142    
   1779000   0.45368752     3.5013601     -0.47976817   
   1780000   0.44644203     3.5154914     -0.56375083   
   1781000   0.45158184     3.5431178     -0.53504319   
   1782000   0.45109399     3.4434851     -0.60268759   
   1783000   0.44563036     3.5137229     -0.51004157   
   1784000   0.45132809     3.5161426     -0.51202188   
   1785000   0.44891459     3.4610989     -0.54143329   
   1786000   0.45359669     3.5191112     -0.5610516    
   1787000   0.44926864     3.5214639     -0.60442849   
   1788000   0.45264183     3.5576501     -0.58793383   
   1789000   0.45088689     3.5727769     -0.53039169   
   1790000   0.44981146     3.5045214     -0.46927005   
   1791000   0.4492794      3.5386033     -0.47783337   
   1792000   0.44851764     3.5056095     -0.56282222   
   1793000   0.45166943     3.464555      -0.57322334   
   1794000   0.4534922      3.5214677     -0.56734718   
   1795000   0.44306841     3.512954      -0.52728409   
   1796000   0.44760348     3.518222      -0.55632092   
   1797000   0.45364825     3.5377773     -0.62232715   
   1798000   0.45026549     3.5113403     -0.49417968   
   1799000   0.45089682     3.5163135     -0.49468181   
   1800000   0.45033173     3.5214557     -0.56756309   
   1801000   0.45056069     3.5732566     -0.52819812   
   1802000   0.45263521     3.5096281     -0.542887     
   1803000   0.44846695     3.4631709     -0.51006434   
   1804000   0.45505297     3.5342724     -0.43255817   
   1805000   0.44752439     3.4667536     -0.47179911   
   1806000   0.44975788     3.5509632     -0.53768852   
   1807000   0.4509514      3.494746      -0.51962225   
   1808000   0.44679876     3.4781324     -0.54808107   
   1809000   0.45318228     3.5218372     -0.5734626    
   1810000   0.44465363     3.4761034     -0.53255077   
   1811000   0.4475944      3.5522812     -0.63116215   
   1812000   0.4512193      3.5378704     -0.54516542   
   1813000   0.44727645     3.5247468     -0.46101862   
   1814000   0.45169922     3.5171481     -0.54723711   
   1815000   0.45244111     3.5384591     -0.49047323   
   1816000   0.44664455     3.5440906     -0.57927288   
   1817000   0.45463477     3.5029576     -0.55585396   
   1818000   0.45310085     3.5237176     -0.42986102   
   1819000   0.44731715     3.5094372     -0.46127327   
   1820000   0.45296514     3.5369469     -0.54858182   
   1821000   0.45151939     3.5301734     -0.55201001   
   1822000   0.45210182     3.4738451     -0.55674343   
   1823000   0.44919897     3.5211287     -0.49925603   
   1824000   0.4544001      3.5087942     -0.4726879    
   1825000   0.45052382     3.4828514     -0.48180793   
   1826000   0.45298709     3.5117552     -0.56158374   
   1827000   0.45185827     3.4916271     -0.50947358   
   1828000   0.45385033     3.541377      -0.63323599   
   1829000   0.44612067     3.5117886     -0.55746188   
   1830000   0.45066967     3.6029961     -0.55917551   
   1831000   0.45046524     3.4963827     -0.45971983   
   1832000   0.44624998     3.4756846     -0.34680056   
   1833000   0.45615839     3.5563657     -0.50987863   
   1834000   0.44725615     3.4602337     -0.52633416   
   1835000   0.44899009     3.500933      -0.50807363   
   1836000   0.45227963     3.496028      -0.50514189   
   1837000   0.44682773     3.43903       -0.50725021   
   1838000   0.45405197     3.5361563     -0.52381003   
   1839000   0.45043313     3.4746253     -0.57453216   
   1840000   0.45109952     3.5115108     -0.56544518   
   1841000   0.4470841      3.4850899     -0.52124917   
   1842000   0.45001047     3.5137388     -0.53762653   
   1843000   0.45050781     3.4714113     -0.54601636   
   1844000   0.44914764     3.5253076     -0.58602362   
   1845000   0.44765993     3.5171397     -0.46389883   
   1846000   0.44801625     3.5260996     -0.42346848   
   1847000   0.4550819      3.5673825     -0.53378805   
   1848000   0.45076557     3.5053366     -0.5406606    
   1849000   0.45231578     3.5288636     -0.47854442   
   1850000   0.45000269     3.5173031     -0.43429484   
   1851000   0.44824922     3.5064143     -0.55391254   
   1852000   0.45376944     3.5245776     -0.54132713   
   1853000   0.44904904     3.5252137     -0.53802817   
   1854000   0.44917872     3.4846169     -0.56623989   
   1855000   0.44364328     3.4988703     -0.52047712   
   1856000   0.45140788     3.4929319     -0.59062162   
   1857000   0.45361944     3.4979935     -0.55517641   
   1858000   0.44940279     3.4618978     -0.60261306   
   1859000   0.44652633     3.5062601     -0.51568597   
   1860000   0.45144474     3.5275338     -0.52309463   
   1861000   0.45042913     3.4956512     -0.54471978   
   1862000   0.4492984      3.4853111     -0.57461814   
   1863000   0.45046008     3.5002936     -0.59156511   
   1864000   0.45023802     3.458615      -0.49049529   
   1865000   0.45408273     3.5218054     -0.61295616   
   1866000   0.44628484     3.4351364     -0.59325615   
   1867000   0.45125755     3.4934611     -0.57450675   
   1868000   0.45332912     3.4937694     -0.52408835   
   1869000   0.44854292     3.4618729     -0.51302494   
   1870000   0.4517371      3.4958895     -0.51862644   
   1871000   0.45168664     3.4244314     -0.52983483   
   1872000   0.45141155     3.5508907     -0.5851596    
   1873000   0.4505655      3.49811       -0.58784738   
   1874000   0.45383049     3.5572139     -0.49669481   
   1875000   0.44626202     3.5235992     -0.49422845   
   1876000   0.45485562     3.4822803     -0.45882998   
   1877000   0.45273225     3.4521349     -0.50749195   
   1878000   0.45141657     3.440631      -0.50623798   
   1879000   0.44784884     3.4735687     -0.5154361    
   1880000   0.45297845     3.4644599     -0.53085521   
   1881000   0.44937208     3.4837455     -0.53846434   
   1882000   0.45002946     3.4608704     -0.65005708   
   1883000   0.45010023     3.4823891     -0.60469809   
   1884000   0.4550178      3.4874032     -0.51796158   
   1885000   0.4476919      3.5094154     -0.53940171   
   1886000   0.45145613     3.5233626     -0.51369316   
   1887000   0.44681238     3.5007289     -0.53464994   
   1888000   0.4517281      3.4952003     -0.47153569   
   1889000   0.44970844     3.4789957     -0.55945294   
   1890000   0.45086082     3.4883539     -0.44502891   
   1891000   0.44659584     3.4815625     -0.52402669   
   1892000   0.44763747     3.5275564     -0.52964103   
   1893000   0.45040758     3.4543503     -0.4644708    
   1894000   0.45110786     3.4941061     -0.49063482   
   1895000   0.45598819     3.4294643     -0.5674963    
   1896000   0.45168576     3.4797887     -0.53255806   
   1897000   0.44969962     3.5018424     -0.47488898   
   1898000   0.45035258     3.5217346     -0.48568709   
   1899000   0.44789489     3.4853917     -0.49549539   
   1900000   0.4491538      3.5070036     -0.57176414   
   1901000   0.45947786     3.4848839     -0.58106281   
   1902000   0.44460836     3.5308056     -0.50355369   
   1903000   0.45078583     3.5190849     -0.4976616    
   1904000   0.44814869     3.4984765     -0.58961185   
   1905000   0.44838252     3.5522454     -0.4665683    
   1906000   0.45495014     3.4651275     -0.47961298   
   1907000   0.44546912     3.4335327     -0.49033027   
   1908000   0.45395952     3.5560063     -0.38980583   
   1909000   0.45021877     3.4063269     -0.49633933   
[...]
   3006000   0.44710149     3.5047396     -0.53920131   
   3007000   0.45154612     3.4961499     -0.52090399   
   3008000   0.45483783     3.4954745     -0.4057603    
   3009000   0.45087242     3.5136844     -0.43903597   
   3010000   0.45211874     3.4861129     -0.44091582   
   3011000   0.45428701     3.5391198     -0.53706895   
   3012000   0.45611142     3.4628985     -0.48411054   
   3013000   0.44724122     3.4747297     -0.54634411   
   3014000   0.44808888     3.4754846     -0.55666566   
   3015000   0.45207039     3.5103789     -0.4980803    
   3016000   0.45001798     3.4868492     -0.60494484   
   3017000   0.44665122     3.5163358     -0.49381056   
   3018000   0.44694414     3.5627044     -0.49946108   
   3019000   0.454767       3.5476412     -0.55447984   
   3020000   0.45158034     3.4684977     -0.5154027    
   3021000   0.44778458     3.5239221     -0.55097558   
   3022000   0.45003935     3.5454127     -0.57435278   
   3023000   0.44887523     3.4748016     -0.50961411   
   3024000   0.4523         3.563149      -0.55901968   
   3025000   0.45036401     3.4542871     -0.50343336   
   3026000   0.44987077     3.4913768     -0.54103239   
   3027000   0.45488192     3.524949      -0.46704541   
   3028000   0.44557937     3.4006782     -0.49350374   
   3029000   0.45879384     3.5232494     -0.50467003   
   3030000   0.44814609     3.4047328     -0.58120028   
   3031000   0.44946798     3.4671183     -0.52480389   
   3032000   0.45605689     3.477862      -0.51718773   
   3033000   0.44568907     3.4377498     -0.6553141    
   3034000   0.45714851     3.5178179     -0.56684671   
   3035000   0.44701427     3.4090925     -0.60426542   
   3036000   0.45123691     3.5330962     -0.56964343   
   3037000   0.4530799      3.4508395     -0.47669291   
   3038000   0.45150333     3.469375      -0.52083249   
   3039000   0.45218268     3.5189384     -0.52903032   
   3040000   0.44920471     3.4582771     -0.49118887   
   3041000   0.4473654      3.5173173     -0.478479     
   3042000   0.45330943     3.5112546     -0.52238743   
   3043000   0.45161326     3.4967913     -0.50259716   
   3044000   0.45039156     3.5212848     -0.49626177   
   3045000   0.44750625     3.562791      -0.5111072    
   3046000   0.45208181     3.5062176     -0.51949898   
   3047000   0.44963473     3.5097941     -0.50410066   
   3048000   0.45088716     3.5421585     -0.47533511   
   3049000   0.44999021     3.532355      -0.51469785   
   3050000   0.45224874     3.497478      -0.49623892   
   3051000   0.44842033     3.5268239     -0.51950678   
   3052000   0.44970715     3.5450295     -0.49855471   
   3053000   0.4477798      3.5234697     -0.49302189   
   3054000   0.45110696     3.4759118     -0.48139315   
   3055000   0.45069805     3.4915435     -0.4241066    
   3056000   0.44885274     3.4808407     -0.59851639   
   3057000   0.45126807     3.4932247     -0.5646226    
   3058000   0.44851256     3.471634      -0.5329611    
   3059000   0.45146766     3.5215535     -0.52580325   
   3060000   0.44907475     3.5416747     -0.64563782   
   3061000   0.44810565     3.5006952     -0.61139698   
   3062000   0.45092681     3.5284139     -0.55206701   
   3063000   0.44931866     3.506568      -0.54512527   
   3064000   0.45357645     3.5211769     -0.51351073   
   3065000   0.4468797      3.5106583     -0.4644719    
   3066000   0.45412595     3.4826882     -0.54665838   
   3067000   0.45147396     3.5325926     -0.54154014   
   3068000   0.44771061     3.5501868     -0.45343974   
   3069000   0.45153924     3.5130769     -0.44732381   
   3070000   0.44692603     3.4624819     -0.57238335   
   3071000   0.44464272     3.4807086     -0.64970222   
   3072000   0.45053967     3.498811      -0.60893803   
   3073000   0.45067961     3.4725165     -0.5778776    
   3074000   0.45371305     3.5000952     -0.45449397   
   3075000   0.44668793     3.4765547     -0.49472838   
   3076000   0.45041529     3.4864944     -0.51820636   
   3077000   0.45406131     3.4963906     -0.53925135   
   3078000   0.44512218     3.4807509     -0.59904642   
   3079000   0.45922221     3.5159664     -0.50831493   
   3080000   0.44872562     3.4315254     -0.58080013   
   3081000   0.44711212     3.5364762     -0.48157815   
   3082000   0.45140589     3.5365345     -0.50075843   
   3083000   0.4484377      3.4717757     -0.53978628   
   3084000   0.45496413     3.5214791     -0.54515913   
   3085000   0.44912926     3.4119264     -0.48898796   
   3086000   0.4470879      3.5426769     -0.56096796   
   3087000   0.44940163     3.4795159     -0.56209633   
   3088000   0.45022844     3.4746301     -0.55209185   
   3089000   0.44925973     3.4667465     -0.56313902   
   3090000   0.45491674     3.5110601     -0.50555153   
   3091000   0.45235198     3.4372342     -0.52530588   
   3092000   0.44887696     3.5274351     -0.53536341   
   3093000   0.45128824     3.5044757     -0.58703932   
   3094000   0.44760303     3.5306523     -0.55517938   
   3095000   0.45597878     3.5687419     -0.55356261   
   3096000   0.44044301     3.4707869     -0.59438936   
   3097000   0.45459368     3.5592741     -0.56003795   
   3098000   0.44727023     3.513602      -0.50778645   
   3099000   0.4430458      3.5455314     -0.56820891   
   3100000   0.45582075     3.5196465     -0.53764351   
   3101000   0.45107524     3.4808919     -0.5915098    
   3102000   0.44833295     3.513403      -0.54305739   
   3103000   0.45006875     3.5085013     -0.51905101   
   3104000   0.45521817     3.4776172     -0.511829     
   3105000   0.44729708     3.4986775     -0.46816265   
   3106000   0.45250187     3.5003805     -0.53065867   
   3107000   0.45331531     3.5298676     -0.59218616   
   3108000   0.44686341     3.4650646     -0.50061129   
   3109000   0.45116467     3.5001086     -0.47011832   
   3110000   0.44755691     3.4857279     -0.49383912   
   3111000   0.44858901     3.4911625     -0.46393098   
   3112000   0.45148455     3.524007      -0.51387924   
   3113000   0.44581586     3.4643666     -0.57920256   
   3114000   0.45504907     3.5527162     -0.4804052    
   3115000   0.44826477     3.4308693     -0.47517961   
   3116000   0.45368712     3.5402556     -0.41469749   
   3117000   0.44645529     3.5093852     -0.52685555   
   3118000   0.44576204     3.5100353     -0.43555312   
   3119000   0.45157916     3.5208186     -0.52780559   
   3120000   0.44746103     3.4821833     -0.53230744   
   3121000   0.45343411     3.4977588     -0.52476144   
   3122000   0.45012476     3.5270561     -0.55491164   
   3123000   0.44512907     3.5055961     -0.53528929   
   3124000   0.45403065     3.5377393     -0.48720853   
   3125000   0.44771787     3.4710047     -0.59005916   
   3126000   0.45169999     3.5103926     -0.52305689   
   3127000   0.4503463      3.5265044     -0.51697519   
   3128000   0.445045       3.5609148     -0.54048143   
   3129000   0.45081781     3.5436797     -0.55533691   
   3130000   0.449628       3.5427804     -0.45714684   
   3131000   0.45038201     3.5897948     -0.51493305   
   3132000   0.45003637     3.5119777     -0.52039458   
   3133000   0.45154902     3.4978824     -0.54614735   
   3134000   0.44752613     3.5700274     -0.56704749   
   3135000   0.45118315     3.47217       -0.48659563   
   3136000   0.45328637     3.5186197     -0.55446331   
   3137000   0.45237928     3.4926491     -0.53349116   
   3138000   0.45091721     3.4966829     -0.54815241   
   3139000   0.44676658     3.4789701     -0.51060945   
   3140000   0.44594836     3.5147435     -0.50326492   
   3141000   0.45227235     3.4934918     -0.55837378   
   3142000   0.44999852     3.476895      -0.52484474   
   3143000   0.45477434     3.4384775     -0.52490944   
   3144000   0.45671567     3.5250492     -0.51364596   
   3145000   0.4441155      3.4554392     -0.5020807    
   3146000   0.45137666     3.5140822     -0.47318354   
   3147000   0.45014154     3.4874702     -0.51070925   
   3148000   0.45073102     3.5046993     -0.51830845   
   3149000   0.44763168     3.4697263     -0.52971415   
   3150000   0.45146122     3.5252543     -0.62380876   
   3151000   0.44920912     3.4899105     -0.54968586   
   3152000   0.44900483     3.5038324     -0.55650136   
   3153000   0.45264273     3.5350742     -0.70446664   
   3154000   0.4528354      3.491355      -0.56390573   
   3155000   0.44969087     3.5677274     -0.47079345   
   3156000   0.4484094      3.4982357     -0.46731159   
   3157000   0.45375981     3.5417993     -0.49787599   
   3158000   0.44623416     3.467525      -0.40793234   
   3159000   0.44906503     3.5282256     -0.5080998    
   3160000   0.45549971     3.4906349     -0.47205098   
   3161000   0.44539438     3.4863622     -0.52063868   
   3162000   0.44891664     3.4764629     -0.52155801   
   3163000   0.44889676     3.470205      -0.59400937   
   3164000   0.45151005     3.497934      -0.59602503   
   3165000   0.45209933     3.54076       -0.67778731   
   3166000   0.4478844      3.4962521     -0.59783278   
   3167000   0.45428008     3.5517282     -0.57568288   
   3168000   0.44867563     3.5050932     -0.47849847   
   3169000   0.45513544     3.5345249     -0.56069064   
   3170000   0.45086673     3.4780312     -0.5707952    
   3171000   0.44791526     3.5214554     -0.54864441   
   3172000   0.45076091     3.5581324     -0.61000766   
   3173000   0.44756093     3.4442309     -0.57179852   
   3174000   0.45152242     3.5085645     -0.62213932   
   3175000   0.45328393     3.5277874     -0.59810105   
   3176000   0.44279261     3.4781795     -0.58697376   
   3177000   0.45515414     3.5718468     -0.43891819   
   3178000   0.44724487     3.4721864     -0.51256945   
   3179000   0.45252071     3.5080786     -0.57706565   
   3180000   0.45270823     3.4948526     -0.61924938   
   3181000   0.45352576     3.4791225     -0.51734351   
   3182000   0.44765094     3.5151325     -0.51641112   
   3183000   0.45530063     3.533871      -0.45717209   
   3184000   0.45369635     3.5000924     -0.53581898   
   3185000   0.44486985     3.5517915     -0.50980954   
   3186000   0.44983926     3.5791566     -0.41870641   
   3187000   0.4482897      3.4355129     -0.51566877   
   3188000   0.45460128     3.5433758     -0.48861508   
   3189000   0.44854969     3.5363804     -0.52693323   
   3190000   0.44500635     3.4704973     -0.4594649    
   3191000   0.45608856     3.5418931     -0.52810104   
   3192000   0.44684589     3.4735792     -0.52652784   
   3193000   0.44686279     3.5245517     -0.54648553   
   3194000   0.450423       3.5151984     -0.58312376   
   3195000   0.44594841     3.4477607     -0.49577913   
   3196000   0.45275727     3.5380161     -0.48861246   
   3197000   0.45045752     3.4761664     -0.54297584   
   3198000   0.45019609     3.4842958     -0.51987059   
   3199000   0.45026037     3.5353347     -0.60354445   
   3200000   0.4536316      3.4598546     -0.47167767   
   3201000   0.45284213     3.4724306     -0.52749927   
   3202000   0.44958793     3.5033006     -0.46725015   
   3203000   0.44991536     3.5495082     -0.48326887   
   3204000   0.44624588     3.4205939     -0.44189079   
   3205000   0.45045519     3.5198503     -0.55330318   
   3206000   0.450986       3.4838962     -0.52836465   
   3207000   0.44477997     3.4993795     -0.49513114   
   3208000   0.45493898     3.521268      -0.5381164    
   3209000   0.44775134     3.4939713     -0.54293996   
   3210000   0.44749492     3.5023931     -0.56481361   
   3211000   0.45612704     3.4975125     -0.53055008   
   3212000   0.44972982     3.4797706     -0.53585222   
   3213000   0.44977321     3.5135123     -0.50420269   
   3214000   0.44846403     3.471645      -0.53845553   
   3215000   0.45125953     3.5185876     -0.48841358   
   3216000   0.44696116     3.486866      -0.54688999   
   3217000   0.45360366     3.4941644     -0.51671602   
   3218000   0.44947045     3.5067583     -0.49188684   
   3219000   0.44762069     3.5047039     -0.51628669   
   3220000   0.44961607     3.5117998     -0.51061884   
   3221000   0.44941501     3.4940846     -0.45509327   
   3222000   0.44661262     3.4454908     -0.53254617   
   3223000   0.45476784     3.5337081     -0.56630314   
   3224000   0.44559415     3.4978151     -0.55091476   
   3225000   0.44712307     3.4942686     -0.48247983   
   3226000   0.44734834     3.5208746     -0.57687044   
   3227000   0.44473213     3.4763395     -0.58943791   
   3228000   0.4540312      3.5335869     -0.59242457   
   3229000   0.44830279     3.4907203     -0.61906939   
   3230000   0.45222529     3.5358492     -0.58602913   
   3231000   0.45165418     3.5204692     -0.54407197   
   3232000   0.44343955     3.4654231     -0.57813753   
   3233000   0.45464553     3.5718491     -0.48151415   
   3234000   0.44977371     3.4863126     -0.5119976    
   3235000   0.45079057     3.5084788     -0.49522512   
   3236000   0.4492056      3.5216034     -0.5006177    
   3237000   0.45102242     3.4429447     -0.47796205   
   3238000   0.45417961     3.539867      -0.53583964   
   3239000   0.45005187     3.4787125     -0.58679747   
   3240000   0.45092169     3.4724141     -0.58289103   
   3241000   0.45201033     3.5424668     -0.51025898   
   3242000   0.44935986     3.4845957     -0.49137766   
   3243000   0.4512356      3.4443952     -0.51284269   
   3244000   0.45357969     3.5243105     -0.55151282   
   3245000   0.4472355      3.4232743     -0.5736122    
   3246000   0.45137075     3.5061094     -0.57996529   
   3247000   0.45012834     3.528159      -0.66908837   
   3248000   0.44653146     3.5093821     -0.54257707   
   3249000   0.45329514     3.5156232     -0.47814262   
   3250000   0.4533594      3.4612935     -0.49997562   
   3251000   0.45259658     3.4878262     -0.48377338   
   3252000   0.44841601     3.5151419     -0.51734837   
   3253000   0.44825246     3.5002765     -0.48824142   
   3254000   0.45344109     3.501822      -0.5484594    
   3255000   0.44374043     3.4815229     -0.54120253   
   3256000   0.452438       3.5080407     -0.5381579    
   3257000   0.44746556     3.4388541     -0.49667176   
   3258000   0.45123267     3.51239       -0.54782052   
   3259000   0.4500151      3.5112851     -0.5069419    
   3260000   0.44573858     3.4763673     -0.57523789   
   3261000   0.4524951      3.5651847     -0.52727274   
   3262000   0.44293819     3.4757003     -0.49191373   
   3263000   0.45108801     3.5661108     -0.48895983   
   3264000   0.44627356     3.5099389     -0.54747021   
   3265000   0.45066062     3.4330229     -0.52491816   
   3266000   0.45359629     3.5467921     -0.54932944   
   3267000   0.44700686     3.4712318     -0.53725604   
   3268000   0.45190905     3.4989549     -0.56313462   
   3269000   0.45091426     3.4613511     -0.55155676   
   3270000   0.4516717      3.5381116     -0.58515333   
   3271000   0.44837187     3.4840582     -0.51066487   
   3272000   0.44675501     3.5347543     -0.56776265   
   3273000   0.45198954     3.4509785     -0.46856842   
   3274000   0.45264573     3.5135918     -0.49612498   
   3275000   0.44981743     3.5167937     -0.45204504   
   3276000   0.44925291     3.4902023     -0.49438583   
   3277000   0.45080997     3.4778316     -0.47828322   
   3278000   0.44893761     3.4681456     -0.50023939   
   3279000   0.45526216     3.517869      -0.49952742   
   3280000   0.45373108     3.5498231     -0.51168763   
   3281000   0.44881166     3.4558487     -0.58633619   
   3282000   0.45412263     3.5489623     -0.45421255   
   3283000   0.44650318     3.5283305     -0.5392477    
   3284000   0.45183478     3.5392975     -0.55869942   
   3285000   0.45158665     3.4516731     -0.50644007   
   3286000   0.44801633     3.4919033     -0.45371227   
   3287000   0.45192264     3.5737332     -0.53279613   
   3288000   0.44692349     3.4625895     -0.47871384   
   3289000   0.45197488     3.5578233     -0.5206245    
   3290000   0.45243747     3.5321492     -0.5493199    
   3291000   0.44963667     3.4670748     -0.48835365   
   3292000   0.45242898     3.5474571     -0.47392046   
   3293000   0.44772353     3.4927553     -0.57432126   
   3294000   0.45111084     3.5630205     -0.5979069    
   3295000   0.44527        3.5257612     -0.49128899   
   3296000   0.44916465     3.5290605     -0.51828703   
   3297000   0.44842849     3.49524       -0.59120272   
   3298000   0.44737456     3.5049457     -0.39716968   
   3299000   0.45528103     3.4782553     -0.51267114   
   3300000   0.44821858     3.5064175     -0.53034462   
   3301000   0.44893353     3.5043322     -0.48404525   
   3302000   0.45362376     3.4871555     -0.61021313   
   3303000   0.454324       3.532601      -0.54802987   
   3304000   0.44370751     3.5714155     -0.51128917   
   3305000   0.45536565     3.5623459     -0.55250278   
   3306000   0.45321131     3.5493981     -0.52286922   
   3307000   0.45017096     3.5371757     -0.53465872   
   3308000   0.45460303     3.5391212     -0.5703492    
   3309000   0.44676496     3.5044118     -0.50784536   
   3310000   0.45363687     3.5243183     -0.51565602   
   3311000   0.4501389      3.5233444     -0.56563294   
   3312000   0.45042324     3.4921285     -0.45095866   
   3313000   0.44891527     3.4935841     -0.52222302   
   3314000   0.45456657     3.4889617     -0.43471654   
   3315000   0.44573866     3.4754931     -0.54437628   
   3316000   0.45328808     3.5011746     -0.53952947   
   3317000   0.45075772     3.5428567     -0.46039627   
   3318000   0.45021842     3.4635267     -0.52758356   
   3319000   0.44904169     3.5371567     -0.52924768   
   3320000   0.45250169     3.5248233     -0.51557807   
   3321000   0.44763848     3.504091      -0.59087405   
   3322000   0.45024287     3.5485445     -0.56124677   
   3323000   0.4512255      3.5004512     -0.5666679    
   3324000   0.44646259     3.6029009     -0.62223368   
   3325000   0.45130491     3.5191722     -0.46939251   
   3326000   0.44496218     3.5657182     -0.51375173   
   3327000   0.45037397     3.5095147     -0.43466768   
   3328000   0.45127792     3.5549332     -0.47196072   
   3329000   0.45293086     3.5454768     -0.48995285   
   3330000   0.44778827     3.4711097     -0.48855132   
   3331000   0.45569397     3.5794301     -0.54214488   
   3332000   0.44998058     3.43818       -0.46784123   
   3333000   0.45358408     3.5370163     -0.50758759   
   3333333   0.44888757     3.4308689     -0.56212721   
Loop time of 8565.72 on 22 procs for 3333333 steps with 16500 atoms

Performance: 100867.204 tau/day, 389.148 timesteps/s, 6.421 Matom-step/s
94.2% CPU use with 22 MPI tasks x 1 OpenMP threads

MPI task timing breakdown:
Section |  min time  |  avg time  |  max time  |%varavg| %total
---------------------------------------------------------------
Pair    | 3675.8     | 3759.7     | 3859.5     |  81.9 | 43.89
Neigh   | 1387.1     | 1400.8     | 1412.5     |  17.6 | 16.35
Comm    | 2165.5     | 2229.5     | 2300.8     |  92.6 | 26.03
Output  | 17.689     | 25.794     | 33.783     |  95.1 |  0.30
Modify  | 912.6      | 966.22     | 1040.4     | 131.2 | 11.28
Other   |            | 183.7      |            |       |  2.14

Nlocal:            750 ave         772 max         713 min
Histogram: 1 1 0 2 2 1 6 3 2 4
Nghost:        4094.73 ave        4129 max        4059 min
Histogram: 2 1 4 2 3 1 2 2 1 4
Neighs:        41224.6 ave       42794 max       38781 min
Histogram: 2 0 1 3 0 4 2 5 2 3

Total # of neighbors = 906942
Ave neighs/atom = 54.966182
Neighbor list builds = 208667
Dangerous builds = 0

print "Shear run complete: gamma_dot = ${SHEAR_RATE}"
Shear run complete: gamma_dot = 0.005
Total wall time: 3:09:26
