LAMMPS data file via write_data, version 11 Feb 2026, timestep = 1000, units = lj

1150 atoms
2 atom types

-20 20 xlo xhi
-20 20 ylo yhi
-20 20 zlo zhi

Masses

1 1
2 10

Pair Coeffs # lj/cut/omp

1 1 1
2 0.5 3

Atoms # atomic

785 1 -9.14661168229236 -19.505219755773897 -19.145238263468435 0 0 0
618 1 -8.490778808566128 -19.46080605592067 -18.238098972104932 0 0 0
348 1 -7.469241600207365 -19.835648966703467 -18.503839467954048 0 0 0
377 1 -8.060901342776988 -19.253235183360992 -19.25584485110355 0 0 0
551 1 17.78712283462396 -18.841981698539524 -16.70952830413753 0 0 0
484 1 -17.20892164226567 -16.925219448576858 -17.867348297482266 0 0 0
765 1 -3.8364800184684675 -14.37922799780157 -17.98599955848702 0 0 0
836 1 -2.9667556195699554 -14.089536454422364 -17.33963976576002 0 0 0
176 1 13.853461604684272 -17.403374569325596 -17.55746234602488 0 0 0
723 1 -8.645598705888467 -14.679562098338064 -18.500284201956855 0 0 0
908 1 -1.6050626974594073 -12.705437887071334 -17.622265040114407 0 0 0
629 1 2.100979692079865 -15.27955175445681 19.716773764909693 0 0 -1
471 1 -11.215241768733385 -10.630693228722171 -19.93926068110218 0 0 0
142 1 -3.8417319482816077 -12.705796148822778 -16.547321457400567 0 0 0
887 1 -3.9582091113674567 -12.498131646853993 -17.647396994216734 0 0 0
211 1 7.365821974429553 -12.88246824155209 -17.86494436667724 0 0 0
192 1 -11.609905458970571 -9.587415024041215 -19.95217855410898 0 0 0
109 1 15.399739122813495 -9.401050371130731 -18.42178958693215 0 0 0
497 1 15.52714560242879 -10.511140130126048 -18.532276505185916 0 0 0
607 1 16.42098856619681 -9.854734465469496 -18.394245217401114 0 0 0
63 1 -15.350154583336971 -7.09769582829323 -18.751904059458955 0 0 0
647 1 -10.790517320993857 -8.829273579194671 -19.91013942140813 0 0 0
1096 2 1.842665373605947 -4.981150857764537 -18.23497240761278 0 0 0
653 1 9.79234539512316 -4.728907599805979 -17.748085103111876 0 0 0
977 1 16.826212801597727 -5.234278225487117 -18.990488034091424 0 0 0
175 1 -19.001507680197445 -3.984128962964903 -17.645510647854813 0 0 0
422 1 -18.595367762583926 -4.826896184601084 -18.265801286241388 0 0 0
430 1 -11.674114677430586 -3.265214117790514 -16.26128351726074 0 0 0
783 1 -18.590419299323404 -0.356318417021126 -18.28827093100992 0 0 0
586 1 -13.933547747698263 -0.8637560845300646 -19.58674020561055 0 0 0
32 1 16.639354970123303 -0.44647781171348716 19.849605197282678 0 0 -1
128 1 15.622060661716239 0.01764807338685245 19.783637754262873 0 0 -1
490 1 -18.853124276243573 3.758124221906155 19.80429228388867 0 0 -1
1098 2 7.1796063300404915 3.6602227670777823 -17.594944426699232 0 0 0
1040 2 -3.2386602427493583 4.458176533901463 19.946006689823317 0 0 -1
598 1 8.240492948018003 4.228265998455046 -16.06502210748826 0 0 0
921 1 12.568146545062643 5.386264655073582 19.80360194254045 0 0 -1
76 1 14.057379262484435 8.069100050405822 -16.9421685705609 0 0 0
561 1 7.179745968824185 10.503097472395341 19.866230738308964 0 0 -1
244 1 8.022009589379962 11.277750972904006 -19.932564544910182 0 0 0
492 1 15.135610251139273 8.241951358838309 -17.138367784050793 0 0 0
402 1 -8.088226788794222 12.701400604821112 -19.0790699449157 0 0 0
915 1 6.941592126141352 11.589678377405837 -19.919425019394005 0 0 0
575 1 10.45115204586779 12.097270795181919 19.361181094838585 0 0 -1
562 1 14.16441896971079 12.871628785832954 -17.803083926276074 0 0 0
91 1 17.437629346628988 12.172241260932703 -19.788877938106516 0 0 0
133 1 -17.32868611068995 16.11677367224903 -19.519983350487706 0 0 0
567 1 -8.751910596805896 13.600787147520945 -18.97725407082515 0 0 0
104 1 14.63419508983959 15.309485040252275 -17.65561470093341 0 0 0
25 1 -17.657220486262855 16.970626874785133 19.833750901323434 0 0 -1
77 1 -16.82036799177145 17.11073035034451 -19.428930012678073 0 0 0
564 1 -2.1845492291815773 16.54698908745071 19.999504975953954 0 0 -1
732 1 -17.87555942921281 16.981258065327356 -19.06362347710413 0 0 0
901 1 -17.573396391649958 17.924975348557556 -19.585864273760617 0 0 0
760 1 -8.372203027066456 19.70262243998451 -18.979428068734492 0 0 0
734 1 -2.273066525529231 17.636444114700026 19.74513465020936 0 0 -1
960 1 4.82252938638331 18.055232272277074 19.999833583892702 0 0 -1
20 1 8.568287895263499 -18.62275936846066 -17.229041219867185 0 0 0
322 1 9.15011394492956 -19.357456582773597 -17.84758224391365 0 0 0
193 1 16.69161506514519 -18.652622788906186 -16.819826188573433 0 0 0
489 1 18.85199739046217 -18.918245177859934 -16.39283687293288 0 0 0
498 1 -3.881525761521736 -14.576553022222408 -16.88343703983296 0 0 0
810 1 3.861392368129097 -15.439260486786267 -17.044343237242064 0 0 0
202 1 7.487035503866768 -15.798351113296068 -17.523250963259127 0 0 0
979 1 17.397151354240776 -17.794335494733833 -16.656137663263358 0 0 0
144 1 -19.353168722091375 -15.164098997175241 -15.711083018014312 0 0 0
437 1 -6.656227644512029 -14.773161404331237 -16.089671806842105 0 0 0
270 1 -4.01254927221437 -13.54415439195122 -17.27969123702488 0 0 0
347 1 -3.3716236529509986 -13.710730853837891 -16.39483933293211 0 0 0
382 1 3.7863804585188476 -14.455095750508885 -16.50976718733048 0 0 0
60 1 13.982850935581762 -14.905769555755487 -16.632788127022724 0 0 0
500 1 -16.025332240337036 -10.10252454522228 -18.933822397909232 0 0 0
659 1 -2.111298791191161 -13.388677070122045 -16.875970477637754 0 0 0
945 1 15.724912909690438 -10.021985840561527 -17.537202044297292 0 0 0
929 1 -16.439618090878888 -10.986539747671294 -18.404981883680655 0 0 0
982 1 -15.33015559731174 -10.777390509331784 -18.39167956522582 0 0 0
1101 2 -2.651067358178319 -11.183623293300506 -17.07318292560044 0 0 0
280 1 14.676458438208982 -10.0859077586904 -17.91466988737179 0 0 0
1148 2 4.2555937419149625 -6.790058284890687 -16.7366487679001 0 0 0
593 1 -18.969480910650983 -5.024852141629803 -17.22620077551077 0 0 0
526 1 -18.016414003576593 -4.452244531144462 -17.380169137626883 0 0 0
1074 2 -1.2696801937471545 -5.195330374565192 -16.965429866838196 0 0 0
649 1 -11.539728146230448 -4.305914470652046 -15.862950888017775 0 0 0
1076 2 4.09951127342932 -3.461020063695668 -16.25157811257154 0 0 0
246 1 11.701078613732792 -3.0491347003281306 -16.105301733057487 0 0 0
930 1 -18.749828919863997 0.7537411228629132 -18.236985381684608 0 0 0
1091 2 6.803223584940081 0.3236630619039936 -17.3277549727792 0 0 0
946 1 17.50020204542102 1.8548634095305265 -15.08924624383342 0 0 0
70 1 14.327303114820442 6.9919801385630285 -17.042763868444453 0 0 0
99 1 14.057551426048592 7.3978627000438575 -16.038617098132164 0 0 0
686 1 13.266618788220274 7.303151769121196 -16.827000146181096 0 0 0
110 1 -8.470787982320514 10.076234840704332 -15.735270549222678 0 0 0
592 1 -8.197066631952195 13.208815439547138 -18.08351669726373 0 0 0
902 1 -7.414443527483151 10.375439352400235 -15.504132885014874 0 0 0
889 1 -6.408863776806327 14.410773191272332 -16.616011221204374 0 0 0
302 1 17.717908878097525 11.056551338571566 -16.241192960882447 0 0 0
119 1 -11.651028639309022 13.370545870108042 -17.05480287262084 0 0 0
877 1 -12.659503364836265 13.449336186550306 -16.568158651957418 0 0 0
506 1 -6.7181921709142856 15.487896940342782 -16.566222359894113 0 0 0
568 1 -5.63235423452669 15.211537793354756 -16.556125758469015 0 0 0
730 1 -2.6477820599931077 15.715791793007577 -16.38469187309346 0 0 0
389 1 2.797981004296438 15.140213805952872 -16.29215765917441 0 0 0
65 1 -11.863288834084932 17.32623386920963 -16.063818747332736 0 0 0
998 1 -6.288220321920579 14.981896279010854 -15.66368471468979 0 0 0
457 1 2.035521064644712 15.852551404536444 -15.878435434384967 0 0 0
748 1 7.178801243207692 17.19499131832075 -15.798303218738 0 0 0
881 1 14.747422858686475 16.014189791658083 -16.789022199353024 0 0 0
505 1 -2.462760012071027 17.29461109462724 -17.21206574817996 0 0 0
518 1 11.379063849647931 19.065478763310058 -15.82437874707357 0 0 0
993 1 12.319669778649185 19.08977162217275 -15.212250876098924 0 0 0
909 1 18.927644535065056 -18.660445189388646 -15.303951901470572 -1 0 0
555 1 -14.279330100966355 19.79500023601384 -13.862584121865568 0 -1 0
670 1 -4.148464170021156 -18.90168154146245 -14.20070761043311 0 0 0
507 1 1.0276178049872287 -17.976383779136356 -14.312429081348917 0 0 0
899 1 11.637112617429317 19.98074223439838 -15.228086234004236 0 -1 0
926 1 18.205479230509305 -18.12021637885679 -15.957102750706271 0 0 0
436 1 1.5441722853456756 -17.14182198127297 -13.767819933185281 0 0 0
530 1 17.170120688799805 -18.510279226094145 -15.82022542864098 0 0 0
333 1 -7.120517177626576 -14.742769301386948 -15.067877229602841 0 0 0
709 1 -3.051191159705372 -13.004896143648647 -17.25898873445049 0 0 0
74 1 7.300428117648664 -13.225653132700165 -14.100251189421213 0 0 0
814 1 10.98056498464996 -15.086075229698531 -12.964278363220396 0 0 0
336 1 -10.193291844519168 -11.825642119041664 -13.630442239126006 0 0 0
454 1 -2.778311167350176 -12.824131935656963 -16.177347926645723 0 0 0
223 1 -18.760738669690276 -10.93356464241539 -13.277261068821662 0 0 0
306 1 -18.14845960439407 -10.136703638121462 -12.777132885932843 0 0 0
459 1 -3.303324738842577 -9.902083070087832 -15.77677581699986 0 0 0
882 1 7.721212777879634 -9.959424583055373 -14.633058595096928 0 0 0
1139 2 -2.675750003198135 -8.062434523638563 -15.887387784053663 0 0 0
1085 2 6.552693822646619 -8.428016587391687 -14.897356776403486 0 0 0
816 1 10.811341343825246 -6.541733394229734 -14.796251505212881 0 0 0
888 1 13.22359508654844 -5.512366019211215 -13.767540778733874 0 0 0
282 1 17.034260303614108 -4.538787752857807 -15.30161442199378 0 0 0
360 1 -12.397893245394714 -3.6755251730316676 -15.507868214639116 0 0 0
247 1 -9.261391112159423 -2.887726458994835 -13.287010728322635 0 0 0
1103 2 -10.829314024860299 -3.0952647621705736 -14.517146722377133 0 0 0
1069 2 -7.970825554731931 -4.3395673596720625 -13.54947405405087 0 0 0
388 1 12.640007151668149 -4.696377230449505 -14.271276570044428 0 0 0
301 1 -16.98525180890916 -0.6304902596029512 -13.523656152933329 0 0 0
1052 2 2.1785238289476028 -1.0388751125779594 -14.914754896249262 0 0 0
795 1 11.499006607903935 -2.3621977981725766 -15.243939283285318 0 0 0
911 1 10.915500014178946 -1.445587377455193 -15.516635357955863 0 0 0
906 1 15.216008888099912 -1.2441770388731708 -14.608523864944083 0 0 0
478 1 -16.281249225079353 0.17497383220412233 -13.192052500561559 0 0 0
1009 2 2.2963313658402313 2.217425658068185 -14.059418348367865 0 0 0
644 1 17.043288063531858 1.7135341862369107 -14.073763345918179 0 0 0
924 1 18.148552258564237 1.578228677372279 -14.215750849181637 0 0 0
606 1 -12.561150468956894 3.9886469966697122 -15.24090574891231 0 0 0
1111 2 10.083767344029768 3.6231591141113646 -15.905128316198057 0 0 0
277 1 -19.737421271851304 6.769610226157984 -13.192642446745893 0 0 0
676 1 -16.472602274962963 6.187887435561645 -13.852220611007512 0 0 0
1118 2 6.392110491035257 5.936630696629233 -11.418057011251841 0 0 0
1138 2 7.357470145164192 5.029535153272345 -14.525652015385068 0 0 0
853 1 -7.770706920714829 9.347852437832268 -15.250888345543126 0 0 0
585 1 12.332626349455161 7.797533580764783 -16.468169263250346 0 0 0
335 1 12.98666418376102 7.224935204111843 -15.750420280127077 0 0 0
782 1 13.312613856194057 8.218379864896235 -16.145415198630253 0 0 0
831 1 -8.841358655971867 9.398462297949878 -14.92470499346029 0 0 0
401 1 -8.150738300177927 10.244552696772297 -14.674843574674913 0 0 0
300 1 2.6866746559786425 11.062356653096908 -13.908209080526325 0 0 0
1062 2 3.2080325906000384 9.397284440448946 -14.760030119809867 0 0 0
634 1 4.566670372407394 10.777738757371326 -14.895410727827086 0 0 0
525 1 17.897802409940684 10.785778486194308 -15.166815417249381 0 0 0
231 1 18.26799003180896 11.766570588255938 -15.567954140965844 -1 0 0
200 1 3.7188793493356953 11.223992398651218 -14.313843725966008 0 0 0
984 1 8.049130275998698 13.219895218606677 -14.797170899151501 0 0 0
578 1 17.167398497752483 11.59763430439918 -15.426268897287878 0 0 0
224 1 -5.234184451955036 15.321941956154925 -15.518614282550642 0 0 0
811 1 9.08536846351323 13.60081158210478 -14.999739881601554 0 0 0
910 1 -17.639713418007307 16.18631853896115 -13.468817864054703 0 0 0
134 1 -6.006584987335243 16.04005683914368 -15.901106141663302 0 0 0
589 1 6.813438143526624 17.566674785769106 -13.095636086680706 0 0 0
237 1 15.731501229696871 17.497653564923173 -13.293220508501262 0 0 0
692 1 -14.786805606445755 19.238606708642816 -14.75408456442963 0 0 0
787 1 -14.483204175275056 18.695387508662023 -13.775114070457647 0 0 0
722 1 -13.640311835238695 19.061455240560647 -14.48349472478838 0 0 0
943 1 -13.17577681862018 19.929029822453202 -14.052521428976803 0 0 0
762 1 18.030194019000707 -19.202825701044887 -15.685385239674925 0 1 0
746 1 0.9194530018193396 -17.881008620827313 -13.199269162726237 0 0 0
646 1 -17.007461493979644 -17.313396322537535 -12.091187788788273 0 0 0
180 1 10.838662671015841 -15.846395276360758 -12.150830622020138 0 0 0
327 1 19.609645308110608 -16.431920719110213 -13.218514049501534 0 0 0
594 1 -11.919766791127515 -15.520458480119919 -12.345675375473535 0 0 0
981 1 -5.636307211246582 -14.46891663645754 -12.845226797452657 0 0 0
117 1 -18.445847488309305 -11.056591862615463 -12.206876660567643 0 0 0
376 1 4.883400231046838 -11.263278256876424 -11.857895911840004 0 0 0
312 1 -15.286963024387207 -10.372420738629954 -12.265553840826163 0 0 0
173 1 -10.223306805928173 -10.801662944080295 -13.171664602423705 0 0 0
432 1 -1.603800696716162 -10.344621546529426 -11.626534940537667 0 0 0
245 1 2.0741332882846395 -10.159258013629119 -13.142199174153983 0 0 0
71 1 -19.21989559536348 -10.290870973102873 -12.479813535976117 1 0 0
574 1 -14.363208240214457 -5.999206093800449 -10.73882224941338 0 0 0
870 1 -9.807922389053553 -3.817951389398793 -13.010256434236842 0 0 0
1137 2 2.8004554423677637 -5.472288245198708 -12.262665834668795 0 0 0
983 1 10.92231143163939 -6.301253757870915 -13.705557508268873 0 0 0
860 1 -17.747608021600776 -0.805507662306722 -12.722080565797908 0 0 0
467 1 -16.694635625987672 -0.5458452303383585 -12.440581786681799 0 0 0
935 1 -9.980016919430273 -2.0451228682402336 -13.145133590010465 0 0 0
1130 2 6.138418358406071 -0.8935460723209846 -12.115718311310504 0 0 0
362 1 -17.362788388548935 0.2298245165409369 -12.906723174123876 0 0 0
216 1 -12.552732548614188 1.4866904939669745 -12.198831248922767 0 0 0
1064 2 -7.4563501012165 0.850887978552995 -10.453430513130863 0 0 0
1083 2 -5.447919755855346 0.4278037904241387 -13.144704783478668 0 0 0
1057 2 0.291879812107109 1.2529346939181998 -11.531416453591161 0 0 0
873 1 14.192344743806633 0.4542191406920199 -13.477146751262952 0 0 0
1048 2 -2.488854496223592 3.134324230141362 -11.272420099907192 0 0 0
1150 2 3.3035321065345715 4.908365656139216 -12.29866361177484 0 0 0
642 1 -8.02554860144222 9.257730947872101 -14.16741600551463 0 0 0
728 1 6.5095857507645905 7.801912345116975 -10.996319171075463 0 0 0
820 1 19.961944724491506 7.297398385230979 -12.248690322509633 0 0 0
167 1 -16.41739071241435 10.03659013344729 -12.903358286357934 0 0 0
920 1 -2.084180380098393 9.826252332882296 -11.119500936123073 0 0 0
857 1 -16.986934141155587 11.003159055091436 -12.940285410746121 0 0 0
611 1 -5.868869171966305 13.146118245788815 -11.909602352077313 0 0 0
466 1 13.489081941111909 13.412863773033896 -12.295363800531147 0 0 0
781 1 -17.814903622127858 13.380425759257736 -9.95813020569839 0 0 0
263 1 -9.054538642032671 15.128525409403359 -9.93987683490711 0 0 0
132 1 1.8945080241446886 15.547781935575257 -11.601588361269695 0 0 0
627 1 0.8785703939763504 15.586827638254618 -12.077268142011906 0 0 0
363 1 14.569906034912538 13.568599917838807 -12.035569568062714 0 0 0
569 1 13.809000731262177 14.347115661027095 -11.761760285670778 0 0 0
261 1 -19.91359251579372 13.546979579301542 -12.47219822807531 1 0 0
92 1 -18.62998827572857 17.400021977178 -11.463864612441233 0 0 0
482 1 -13.530379521133916 19.111760839243647 -13.390719711851945 0 0 0
695 1 1.3745545273744597 16.53363196395431 -11.734507392201202 0 0 0
537 1 7.794816122619734 17.995084097688036 -12.780902163405761 0 0 0
742 1 8.316277129077758 18.98399563995921 -12.821740053974482 0 0 0
974 1 7.298944581306411 18.906093550203924 -12.357856337791004 0 0 0
400 1 15.301564849626828 18.099360619500995 -12.448798484159301 0 0 0
305 1 -17.235491831012503 -18.011248847944938 -11.242114466203354 0 0 0
544 1 -16.186653679202873 -17.6442306680747 -11.4006835523231 0 0 0
711 1 -10.49554472254831 19.900554445037354 -10.624465981985045 0 -1 0
308 1 3.7709259367717687 -18.171206863662665 -10.220294810488184 0 0 0
393 1 7.742095081116001 -17.85564897746181 -9.233121509169234 0 0 0
337 1 8.610826597390709 -18.113595939334935 -8.571589956492058 0 0 0
148 1 0.7579954250018204 -17.08594820608998 -8.054314944330464 0 0 0
241 1 17.687215453287813 -15.149108363641076 -9.245437266344208 0 0 0
907 1 7.741364435961639 -14.131892526518634 -9.681742888510662 0 0 0
443 1 12.96866705758518 -14.846019996647318 -9.90476159009949 0 0 0
528 1 -12.292242383543059 -11.888186895060405 -10.41000729603788 0 0 0
81 1 -6.897138283207482 -9.797552914346758 -8.636831463579453 0 0 0
367 1 -7.659252240998126 -9.955361002504487 -7.830973584620822 0 0 0
736 1 13.836775842728244 -8.781280007412997 -10.03965687746396 0 0 0
80 1 -5.590076269717926 -6.646513520458266 -7.525725604135877 0 0 0
21 1 14.334456050036193 -7.790229570786825 -9.865837841923204 0 0 0
595 1 -13.968682877807833 -5.782561237642888 -9.710563301871206 0 0 0
1024 2 -5.944697922746069 -5.492999748294769 -9.153097317897148 0 0 0
191 1 9.27166117183442 -5.5043903790017135 -10.607639855746147 0 0 0
435 1 15.396095257160603 -4.833010528712923 -9.910555518626554 0 0 0
509 1 -15.102118509064669 -2.4962003989618675 -10.604685198498306 0 0 0
1077 2 -9.810171731479691 -2.75382544986867 -11.36231241845198 0 0 0
1078 2 3.3435781846692483 -2.401649435594925 -10.984727307864008 0 0 0
801 1 -15.869242563332715 -1.8228938924644082 -10.137591879148143 0 0 0
84 1 -15.245327041387236 -1.452472602411164 -10.99370662589414 0 0 0
326 1 -14.775984839099046 -1.6182350232451257 -9.986651676106389 0 0 0
1095 2 -9.168216028133752 -1.2353395048800262 -8.376841249403288 0 0 0
228 1 9.257592713167474 -0.10859291067065686 -8.222346574439069 0 0 0
694 1 19.20185270542967 -0.5222727246409323 -9.12478217588808 0 0 0
66 1 -19.81676060683461 -0.17026481599687499 -9.5336685574459 0 0 0
273 1 -19.535321615816578 0.8910475821960722 -9.311344965670699 0 0 0
1102 2 8.677568191282818 0.22254720606929737 -10.18434432123211 0 0 0
1027 2 4.969472869975215 1.9868181334827453 -8.741960199868693 0 0 0
1142 2 2.8653456641116044 4.62158302195153 -8.971704555941676 0 0 0
1134 2 7.8282190468358985 3.468096400454291 -9.586498163432589 0 0 0
797 1 8.251338192260217 1.6670623041021508 -8.927785887004783 0 0 0
875 1 14.54166493370314 3.3402801542970715 -7.9792752177940995 0 0 0
276 1 18.05424417410525 6.080673821521601 -8.812294891740756 0 0 0
364 1 -17.863645698535247 6.708699328316702 -9.19630006836928 0 0 0
958 1 -7.608470914212959 9.132968370975394 -9.481233053140587 0 0 0
1065 2 -0.5950800612449445 8.93682898906083 -10.242245446701203 0 0 0
398 1 6.579177190870569 8.239825518682643 -9.969606496852698 0 0 0
937 1 6.0088899243911875 7.2891979512323894 -10.117298681969054 0 0 0
452 1 7.123501533570634 7.288805400442108 -10.214083522831213 0 0 0
475 1 -18.837912801442098 13.019841597294851 -9.685065603390077 0 0 0
346 1 -7.424905596635924 8.679608909802926 -8.473215404237466 0 0 0
554 1 -6.7955558411104 9.534316148235925 -8.820252435950952 0 0 0
69 1 1.0343555199626273 9.98343892006639 -10.410932725625859 0 0 0
409 1 15.238188078252312 9.96172491863746 -9.072135926133326 0 0 0
126 1 15.803727388695943 10.688333843190518 -9.714123824178419 0 0 0
405 1 11.51518320278118 13.293751572760236 -8.77531446075868 0 0 0
862 1 -19.94180251215422 11.113992612989941 -8.400916467207578 1 0 0
472 1 -18.464364957393588 13.980966981895536 -9.264484548017696 0 0 0
959 1 -17.75435249477034 14.495350187929855 -9.943386530860352 0 0 0
67 1 -16.82822787995213 14.808624888398636 -9.405671679531343 0 0 0
855 1 -16.821329334793067 13.885158697093498 -10.04585333816861 0 0 0
871 1 -17.36486325310649 13.893054098216771 -9.072767830549335 0 0 0
717 1 -8.444182858983982 14.21792545837864 -9.701697341968282 0 0 0
750 1 -9.198845615790514 14.596628359046631 -8.970259942167045 0 0 0
349 1 -8.253624490149546 15.184258765466808 -9.164084236770185 0 0 0
989 1 -2.921889436923733 14.882765505749525 -8.422596820336484 0 0 0
154 1 6.482852065715113 15.090840870372222 -9.751202554511433 0 0 0
758 1 7.448967426730517 14.784192556989108 -9.26520067902221 0 0 0
540 1 -9.347074826115998 18.562725208796373 -10.720578004080878 0 0 0
288 1 7.085226323152803 15.843847691798814 -9.173583064878807 0 0 0
116 1 7.458735383842399 15.461058792177084 -10.157781007967351 0 0 0
560 1 11.137703865211975 14.058542812593284 -9.49619150036846 0 0 0
197 1 -15.4230270462079 17.73373767873117 -8.921934864675912 0 0 0
942 1 -9.409573902095499 19.658602937344266 -10.500168682096772 0 0 0
434 1 6.959908328234701 17.8927161713663 -12.035943447404383 0 0 0
533 1 -14.105068757366315 -19.124499466285467 -7.3987423814164135 0 0 0
837 1 -10.159324064660517 -17.471882144207708 -7.929511899247586 0 0 0
137 1 -1.3313587087261545 -18.8837931877893 -8.723051136386058 0 0 0
210 1 2.3034515281501298 -18.05365467051118 -7.957706303421203 0 0 0
759 1 8.249980634887443 -17.05848890899537 -8.631596226848368 0 0 0
832 1 -9.221198448834892 -16.856304133257442 -7.900037441393347 0 0 0
291 1 1.406816351322401 -17.825950389282003 -8.589174074908088 0 0 0
45 1 1.8721921817344116 -17.01989710909942 -7.9588007071078355 0 0 0
204 1 7.60925905105007 -16.7940909212497 -7.756093596043383 0 0 0
413 1 7.134749465226393 -17.055436723561478 -8.738622252809455 0 0 0
447 1 7.624612808919788 -17.850057874098802 -8.118955212568387 0 0 0
990 1 -10.223877607898809 -16.35234461543 -7.878470051966673 0 0 0
10 1 -5.142905927971686 -15.750016249911571 -7.005632468292519 0 0 0
449 1 -4.447780711005174 -15.505312862372376 -6.15954316165022 0 0 0
22 1 17.776829519477186 -15.119350099088642 -8.132306452208008 0 0 0
55 1 17.076859513660935 -14.417564135579742 -8.636393498916883 0 0 0
310 1 18.1708395912046 -14.26449823541156 -8.764243960122194 0 0 0
417 1 -18.003036961799687 -11.775406057717007 -8.805838447839381 0 0 0
354 1 -13.548276803559723 -12.339717985889795 -6.823977761473318 0 0 0
633 1 -6.571709706173508 -10.137377431906158 -7.622078022396156 0 0 0
62 1 3.4681966336421466 -9.769638106692485 -7.664833592714392 0 0 0
481 1 7.239894854909119 -8.998683565082207 -7.106100154029602 0 0 0
1005 2 -6.868611682969984 -8.205433514638177 -7.532222007368927 0 0 0
43 1 11.044379731456223 -8.554817562886797 -8.540536251326817 0 0 0
130 1 -16.973550041695994 -5.071491166481571 -6.936460072225541 0 0 0
991 1 -17.594827909741152 -4.208126473502942 -7.295383400577269 0 0 0
849 1 -9.34779850687791 -2.5432843958826097 -6.962380121669598 0 0 0
1059 2 2.8582238478294104 -3.3655750882728683 -6.5034776014247635 0 0 0
1015 2 -2.7917464882096956 -0.883227340357017 -8.803818760814062 0 0 0
1113 2 4.96970432491093 -1.3449922080326564 -8.226840453913185 0 0 0
1092 2 8.281796163255319 -1.6192771598962543 -7.520111185227418 0 0 0
970 1 8.878252084835454 0.0006267705991151027 -6.413764486472108 0 0 0
605 1 -12.725028314581325 1.6697363553537032 -7.241248237378945 0 0 0
1082 2 6.93852365694599 3.2501226590698034 -6.276141787507011 0 0 0
1054 2 9.479622199640858 1.622920766309191 -7.4127639486966554 0 0 0
1000 1 19.701352369267365 0.3742024107733633 -8.675356517013844 0 0 0
1144 2 -4.3546343060946056 4.281891958798738 -8.714842010819616 0 0 0
394 1 8.811442419897087 2.8205319764103636 -6.05300952780368 0 0 0
96 1 15.224289750180832 4.232687468758434 -7.862990435370749 0 0 0
212 1 14.847542055193628 3.688902706704635 -6.9718663298974395 0 0 0
391 1 -14.119073349876379 6.423194665603083 -7.261271594008261 0 0 0
678 1 8.392597796261049 1.8237497499292552 -5.760736309357497 0 0 0
573 1 18.752596401012358 6.465379495034066 -8.022183392915386 0 0 0
222 1 -8.221714893634806 9.017246636471002 -7.767298766501139 0 0 0
768 1 17.664252735683366 6.738374002459819 -7.990590083562949 0 0 0
164 1 -19.3623213193485 10.92272982377797 -7.468070587066059 0 0 0
677 1 -19.27454414057384 11.882675661910048 -6.888755674180133 0 0 0
232 1 -7.866088200485041 9.717822704614727 -8.56091220651089 0 0 0
149 1 -8.473233955482568 8.819402958363849 -8.842797000259537 0 0 0
118 1 0.8520333435143546 9.84253310723289 -9.312373739825388 0 0 0
992 1 5.600750655676109 8.24332068489079 -10.524781721779341 0 0 0
541 1 -19.24023038084624 11.897778315490246 -8.006507504761409 0 0 0
513 1 10.765013239883066 13.077137875199222 -7.976980776817207 0 0 0
445 1 19.796736599404344 11.67284817008271 -7.471222081949718 0 0 0
100 1 -18.020430893214712 13.001719303119124 -8.924909194580492 0 0 0
293 1 -18.086418712253458 13.871015293827918 -8.223045012775922 0 0 0
285 1 -8.680305500534454 15.125030272738861 -8.13803553401596 0 0 0
779 1 -9.112992777963397 14.102936872654444 -7.974082250328397 0 0 0
672 1 -8.203772628188755 14.217667983979137 -8.612871247731453 0 0 0
865 1 -3.73964606927575 15.449021834357977 -7.902453656918913 0 0 0
774 1 6.552469839621325 15.01837324297818 -8.63559948089106 0 0 0
14 1 10.792987802972606 14.095384517663609 -8.434624352622215 0 0 0
108 1 11.626934554012665 13.763082018055384 -7.76410188638642 0 0 0
704 1 11.852873148078093 14.358224842593922 -8.68529295241126 0 0 0
7 1 4.013989575024932 16.5367689787412 -7.342444461993096 0 0 0
184 1 3.1544060280888333 16.807839254043238 -6.673276084009651 0 0 0
446 1 11.455821431678645 18.150283984584565 -8.623754529182376 0 0 0
789 1 15.824325314878514 -19.08458140337226 -4.3162567296067715 0 0 0
880 1 -16.61600249029534 -16.59653419212876 -4.778824856838519 0 0 0
299 1 -5.4508689713063845 -15.960928217963243 -5.94751109740184 0 0 0
582 1 -4.646133054206044 -16.575966548192923 -6.430288360772804 0 0 0
491 1 1.313151853275067 -17.863484038420776 -7.469620072488999 0 0 0
775 1 -16.377652513569007 -15.509940766487597 -4.937649522261791 0 0 0
879 1 -13.116898574024558 -13.358249291702979 -6.633086602149183 0 0 0
268 1 -9.971946643017523 -15.47165983151553 -5.430975238636278 0 0 0
635 1 -13.30265458804232 -12.65779748770106 -5.775889573184145 0 0 0
932 1 2.1089586930951247 -12.328620716433983 -6.1382280333031085 0 0 0
57 1 2.397553026353258 -11.842081797616558 -5.16875170014017 0 0 0
788 1 15.832547574522643 -11.794683682393325 -5.286231393088389 0 0 0
303 1 17.977288282564782 -14.12489196709586 -7.679069400477287 0 0 0
591 1 -9.93608329032809 -8.724809841917722 -4.4417723616278 0 0 0
287 1 -7.284390180728432 -9.947030106629946 -6.777253119582411 0 0 0
613 1 -6.185057068894415 -9.778170262995038 -6.635164753870316 0 0 0
778 1 6.170689562547885 -9.770697185711049 -5.843367647922414 0 0 0
157 1 7.042707535040067 -9.936665826902745 -6.526518905064681 0 0 0
636 1 15.107067419588152 -10.995565878597699 -5.594499195092866 0 0 0
469 1 -16.59195105989021 -7.815170726389613 -6.5119758446788545 0 0 0
387 1 -11.010772461317796 -8.749699804788055 -4.769385940888714 0 0 0
410 1 6.186957113479171 -9.284551931924895 -6.852322263513671 0 0 0
72 1 6.886205578382878 -8.932911692692768 -6.0453635325724635 0 0 0
1070 2 -5.868838641882083 -5.543795773263555 -5.860799020078214 0 0 0
1018 2 -2.590655987084404 -5.218424141798553 -5.166410261683422 0 0 0
1136 2 -3.689470564794574 -7.316221561274421 -7.588212813497003 0 0 0
867 1 16.84929022342736 -5.685682924403303 -4.650045295341325 0 0 0
645 1 17.72374930494334 -4.979402006688925 -4.653416322937748 0 0 0
651 1 -9.752985042244553 -2.325381012298953 -5.941832085207083 0 0 0
1125 2 5.994307822237536 -2.804450154761561 -5.387792760808863 0 0 0
966 1 16.740191101939324 -4.658213270057249 -5.0824548531213045 0 0 0
1051 2 -7.889680748783824 -2.854954698239167 -5.71902490404748 0 0 0
1106 2 10.511887342480357 -0.5726601628047887 -5.36804487568208 0 0 0
531 1 9.650914723842126 -0.290550312922094 -7.172834496971069 0 0 0
28 1 15.030998009545172 2.924886260864008 -5.023424007680498 0 0 0
411 1 -13.132405253216007 3.7022892166647083 -4.69451845114699 0 0 0
125 1 14.860329713119098 3.6207386459519015 -5.874957987697987 0 0 0
744 1 14.359741762290259 3.8212469285097908 -4.902653930164075 0 0 0
262 1 -13.370107742767793 7.129642202590615 -6.81414816279349 0 0 0
517 1 -19.984158954286016 11.07884272437642 -6.552083376399696 0 0 0
600 1 -9.712445070812057 9.789859622856891 -4.596109740494313 0 0 0
840 1 -9.070584820462003 8.985640424294937 -5.044932128310407 0 0 0
532 1 9.693359434233148 8.498117970228765 -5.058035891284397 0 0 0
584 1 -18.877013902741993 10.928980658920798 -6.463037276412152 0 0 0
650 1 -7.342015200073642 12.587888147491677 -6.496231410425422 0 0 0
725 1 -6.928134561051427 11.911577557735292 -5.7001563050487825 0 0 0
933 1 8.198904304682104 14.177571382489393 -3.4406381939049546 0 0 0
455 1 12.705878387832335 11.722938443971195 -5.675730882586311 0 0 0
26 1 13.617738477645243 11.710561735086053 -5.084345775915914 0 0 0
94 1 -8.129418173846856 14.381342116884852 -7.51217008107708 0 0 0
415 1 -3.3847557057312425 14.46817506683205 -7.487829129916397 0 0 0
916 1 7.210257104842138 14.670885941553502 -3.6427049645608616 0 0 0
628 1 16.23211696013515 14.407794681437553 -5.1979278472043 0 0 0
923 1 4.20933699308807 16.957377240087773 -6.320249888647897 0 0 0
386 1 8.153817277453426 15.114806686699746 -4.042691203300908 0 0 0
973 1 11.073497133246535 16.073902950514377 -4.981984029901681 0 0 0
604 1 -18.005177200577094 19.796814012246962 -6.520181322464017 0 0 0
281 1 6.926634033999748 -19.795305723790477 -4.340719271709718 0 1 0
428 1 6.450603350081968 -19.250171940496923 -3.482680111861439 0 0 0
8 1 14.910840006576137 -18.85438312355918 -3.7059499269397196 0 0 0
654 1 -18.104140538459784 -17.31209628980806 -3.8492592734901114 0 0 0
640 1 -0.09806627069414105 -17.075417813002957 -3.064644022364992 0 0 0